Protein in water
 7494
    1LYS      N    1   2.593   4.610   2.518  0.5721 -0.1436 -0.3706
    1LYS     H1    2   2.672   4.649   2.570  0.4209 -1.4325  0.8857
    1LYS     H2    3   2.531   4.681   2.482 -2.0110 -2.2089 -0.2394
    1LYS     H3    4   2.533   4.557   2.579 -0.7398  0.6739 -0.9043
    1LYS     CA    5   2.640   4.538   2.404  0.1520  0.3102 -0.1846
    1LYS     HA    6   2.718   4.601   2.361 -0.2870  1.0733  0.1197
    1LYS     CB    7   2.722   4.410   2.459  0.1104  0.0959  0.1512
    1LYS    HB1    8   2.770   4.424   2.555 -0.2761  3.6245 -0.0232
    1LYS    HB2    9   2.645   4.334   2.466 -0.2272  0.5336  1.5492
    1LYS     CG   10   2.836   4.353   2.367 -0.2153  0.1812 -0.2874
    1LYS    HG1   11   2.809   4.344   2.261  2.3117 -1.3342 -0.8934
    1LYS    HG2   12   2.917   4.425   2.371 -0.6792  0.7575 -0.9910
    1LYS     CD   13   2.877   4.214   2.402  0.7274  0.3020  0.3380
    1LYS    HD1   14   2.892   4.206   2.509 -0.5810 -1.6212  0.4229
    1LYS    HD2   15   2.790   4.152   2.377  2.1995 -0.8476 -2.3784
    1LYS     CE   16   3.010   4.169   2.324  0.4790  0.2514  0.7194
    1LYS    HE1   17   2.990   4.185   2.218  1.4338  1.2812  0.6811
    1LYS    HE2   18   3.090   4.241   2.342  0.6610  0.4375 -0.7229
    1LYS     NZ   19   3.053   4.030   2.349 -0.0236 -0.2264 -0.1016
    1LYS    HZ1   20   3.119   4.030   2.426  0.3360 -2.0073 -0.3809
    1LYS    HZ2   21   2.972   3.972   2.366 -1.5434  0.9747 -2.5977
    1LYS    HZ3   22   3.104   4.007   2.266 -0.3658  2.2782 -1.0918
    1LYS      C   23   2.524   4.498   2.316  0.3380  0.7351 -1.0349
    1LYS      O   24   2.412   4.477   2.372 -0.1563  0.2338  0.0801
    2TRP      N   25   2.543   4.491   2.186  0.4213 -0.1428  0.3483
    2TRP      H   26   2.636   4.494   2.147  0.0406 -0.4239 -0.6329
    2TRP     CA   27   2.435   4.465   2.087  0.4263  0.0628  0.1019
    2TRP     HA   28   2.342   4.510   2.121  1.1591  3.2127 -1.6069
    2TRP     CB   29   2.464   4.537   1.953  0.5228  0.4576 -0.0823
    2TRP    HB1   30   2.563   4.501   1.923 -0.1844 -0.4570 -1.4361
    2TRP    HB2   31   2.396   4.506   1.874 -0.3434  1.5502  0.2161
    2TRP     CG   32   2.464   4.689   1.957  0.0976 -0.4661  0.7275
    2TRP    CD1   33   2.427   4.778   2.055  0.1380  0.3332 -0.8687
    2TRP    HD1   34   2.401   4.743   2.153 -0.1010 -0.7756 -1.3117
    2TRP    CD2   35   2.489   4.774   1.837 -0.0856  0.9632  0.4386
    2TRP    NE1   36   2.429   4.908   2.005  0.0344  1.0366 -0.3109
    2TRP    HE1   37   2.387   4.988   2.049  1.2246  1.3405  0.3153
    2TRP    CE2   38   2.469   4.908   1.871 -0.2712  0.3922  0.1160
    2TRP    CE3   39   2.510   4.746   1.696  0.5779 -0.4200  0.3524
    2TRP    HE3   40   2.494   4.646   1.660 -0.7200 -0.4476  0.9546
    2TRP    CZ2   41   2.485   5.015   1.782 -0.6483 -0.2858 -0.0152
    2TRP    HZ2   42   2.465   5.116   1.815 -2.2955 -0.8443  0.7963
    2TRP    CZ3   43   2.514   4.848   1.605  0.4007 -0.1657  0.8911
    2TRP    HZ3   44   2.521   4.824   1.500  2.2748 -0.0146  0.9473
    2TRP    CH2   45   2.504   4.983   1.642  0.1660  0.0231 -0.4729
    2TRP    HH2   46   2.524   5.062   1.571 -1.9772  0.3126 -0.8060
    2TRP      C   47   2.422   4.315   2.077 -0.1321 -0.0177 -0.2277
    2TRP      O   48   2.524   4.244   2.094  0.3079  0.6711  0.0321
    3LYS      N   49   2.300   4.262   2.056 -0.7051  0.3539 -0.1276
    3LYS      H   50   2.221   4.313   2.021 -2.7310 -2.7105 -0.3922
    3LYS     CA   51   2.270   4.122   2.096  0.0771  0.0595 -1.0249
    3LYS     HA   52   2.329   4.103   2.186  0.2900  2.2695 -0.6642
    3LYS     CB   53   2.117   4.124   2.121 -0.0548  0.4433 -0.2909
    3LYS    HB1   54   2.087   4.220   2.163 -0.4938  0.0020  0.4386
    3LYS    HB2   55   2.065   4.112   2.026 -2.7300 -0.1047  1.1154
    3LYS     CG   56   2.069   4.013   2.213  0.1352 -0.3499  0.2542
    3LYS    HG1   57   2.111   3.915   2.191 -0.1670 -0.0879 -1.6071
    3LYS    HG2   58   2.102   4.028   2.316  1.0758 -2.1617  0.2626
    3LYS     CD   59   1.915   4.000   2.216  0.4401  0.4989 -0.0969
    3LYS    HD1   60   1.892   3.950   2.311 -3.3756  0.9007 -0.6640
    3LYS    HD2   61   1.866   4.097   2.225  0.4099  0.4796 -0.0576
    3LYS     CE   62   1.855   3.921   2.105  0.1243  0.5452 -0.5238
    3LYS    HE1   63   1.866   3.986   2.018 -0.3958  2.3592  0.7237
    3LYS    HE2   64   1.913   3.833   2.080 -0.1545  1.1183 -3.6580
    3LYS     NZ   65   1.711   3.908   2.120 -0.2679  0.1205 -0.2009
    3LYS    HZ1   66   1.690   3.850   2.201 -1.1835 -2.9069 -2.3994
    3LYS    HZ2   67   1.663   3.997   2.123 -0.1857  0.2271 -1.5377
    3LYS    HZ3   68   1.673   3.855   2.043 -2.3792  0.3048  0.6447
    3LYS      C   69   2.316   4.017   1.983  1.0618 -0.4766 -0.1887
    3LYS      O   70   2.353   3.902   2.003  0.1068  0.2674 -0.1039
    4LEU      N   71   2.307   4.069   1.861  0.4566 -0.3209 -0.1522
    4LEU      H   72   2.235   4.137   1.844  0.0351  0.1760  3.0193
    4LEU     CA   73   2.387   4.021   1.746 -0.3225  0.3314 -0.2967
    4LEU     HA   74   2.426   3.920   1.761 -2.1563 -0.3546  0.0813
    4LEU     CB   75   2.296   4.013   1.624 -0.5215  0.6102  0.2666
    4LEU    HB1   76   2.252   4.112   1.619 -5.3289 -1.2995 -0.8346
    4LEU    HB2   77   2.347   4.008   1.528 -0.3651  0.4718  0.3559
    4LEU     CG   78   2.175   3.914   1.639  0.2429 -0.0146 -0.5070
    4LEU     HG   79   2.143   3.897   1.742 -0.6437 -1.1832 -0.9533
    4LEU    CD1   80   2.067   3.965   1.553  0.2842  0.1065 -0.1487
    4LEU   HD11   81   1.981   3.898   1.546  0.9925 -0.6605 -3.0199
    4LEU   HD12   82   2.040   4.065   1.586  1.1440  0.4617 -0.5000
    4LEU   HD13   83   2.097   3.985   1.450  0.3394 -0.3150 -0.2161
    4LEU    CD2   84   2.213   3.777   1.584  0.1526  0.4230 -0.1016
    4LEU   HD21   85   2.123   3.717   1.582 -0.6103  1.5431 -0.8270
    4LEU   HD22   86   2.256   3.788   1.485  1.4754  2.0947  0.6006
    4LEU   HD23   87   2.296   3.736   1.642  1.2813  2.5248 -0.0938
    4LEU      C   88   2.489   4.137   1.729  0.1031  1.4825  0.3060
    4LEU      O   89   2.464   4.259   1.726  0.2545  0.3890 -0.0290
    5PHE      N   90   2.617   4.095   1.707  0.0747  0.3715 -0.0287
    5PHE      H   91   2.634   3.996   1.699 -2.5693 -0.2214  0.6895
    5PHE     CA   92   2.724   4.189   1.665 -0.2089  0.2577  0.3091
    5PHE     HA   93   2.684   4.266   1.600  0.8931  0.2148 -0.4413
    5PHE     CB   94   2.785   4.260   1.787  0.8403  0.6840 -0.1423
    5PHE    HB1   95   2.705   4.298   1.850  0.9035 -0.2546  0.5263
    5PHE    HB2   96   2.834   4.187   1.851 -0.8004 -0.5426 -0.2226
    5PHE     CG   97   2.885   4.365   1.788  0.1665  0.1451  0.5590
    5PHE    CD1   98   3.020   4.343   1.802 -0.0826  1.1933  1.5426
    5PHE    HD1   99   3.061   4.243   1.804 -2.5380  0.0279 -0.1299
    5PHE    CD2  100   2.836   4.498   1.790 -0.4900  0.1101 -0.3881
    5PHE    HD2  101   2.733   4.528   1.777  0.0011  1.1081 -2.5251
    5PHE    CE1  102   3.106   4.456   1.816  0.5033  0.7100  0.0120
    5PHE    HE1  103   3.213   4.439   1.824  0.2936 -0.3073  0.7596
    5PHE    CE2  104   2.922   4.610   1.802 -0.2923  0.2564 -0.5717
    5PHE    HE2  105   2.889   4.713   1.806 -0.1753  0.4034 -2.4730
    5PHE     CZ  106   3.055   4.586   1.814  0.1437 -0.3786 -0.7970
    5PHE     HZ  107   3.127   4.660   1.845 -0.8857 -1.2479  4.6779
    5PHE      C  108   2.827   4.125   1.565 -0.5531 -0.7413 -0.1367
    5PHE      O  109   2.918   4.195   1.518 -0.0266  0.5517  0.3557
    6LYS      N  110   2.808   3.997   1.534  0.0946  0.5821  0.3024
    6LYS      H  111   2.734   3.943   1.575  0.2260  0.7377  0.7490
    6LYS     CA  112   2.900   3.918   1.448 -0.4406  0.1513  0.0473
    6LYS     HA  113   3.002   3.923   1.488 -0.0397 -0.4218 -0.8720
    6LYS     CB  114   2.858   3.767   1.442 -0.1408  0.8509  0.6225
    6LYS    HB1  115   2.931   3.716   1.378 -0.6976 -1.0244  1.4067
    6LYS    HB2  116   2.883   3.713   1.533 -1.1100  0.0476  0.4294
    6LYS     CG  117   2.711   3.734   1.408 -0.0914 -0.4936 -0.6691
    6LYS    HG1  118   2.639   3.803   1.454  0.4068 -0.3188 -0.1395
    6LYS    HG2  119   2.709   3.761   1.302  1.2979 -1.1259 -0.8798
    6LYS     CD  120   2.664   3.588   1.432  0.5919  0.3272 -0.3420
    6LYS    HD1  121   2.709   3.529   1.353 -1.0504  1.1634 -1.9793
    6LYS    HD2  122   2.718   3.551   1.519 -0.4741  0.9476  0.6251
    6LYS     CE  123   2.508   3.577   1.444 -0.2503  0.4572  0.0266
    6LYS    HE1  124   2.467   3.639   1.524 -0.3519  0.0453  0.2975
    6LYS    HE2  125   2.459   3.599   1.350  1.9849  1.4870 -0.9807
    6LYS     NZ  126   2.479   3.439   1.477  0.5673  0.3051 -0.4549
    6LYS    HZ1  127   2.489   3.367   1.406 -0.6269  0.2526 -0.5890
    6LYS    HZ2  128   2.539   3.419   1.556 -0.3371  0.8468  0.3876
    6LYS    HZ3  129   2.386   3.428   1.514  0.3013  2.3063 -0.4560
    6LYS      C  130   2.926   3.978   1.310  0.8565 -0.0850 -1.1687
    6LYS      O  131   3.030   3.963   1.251  0.1391  0.1345  0.1168
    7LYS      N  132   2.824   4.050   1.249 -0.1705  0.1534 -0.1564
    7LYS      H  133   2.730   4.045   1.286 -0.3905  0.6342 -0.6364
    7LYS     CA  134   2.836   4.115   1.118  0.2306 -0.3409  0.0220
    7LYS     HA  135   2.921   4.070   1.065  0.9743  0.0733  0.8383
    7LYS     CB  136   2.704   4.092   1.036  0.4946  0.1795 -0.0372
    7LYS    HB1  137   2.625   4.153   1.080  0.3548  0.9117 -1.2554
    7LYS    HB2  138   2.710   4.139   0.938  1.4962  1.5410  0.6504
    7LYS     CG  139   2.675   3.938   1.041 -0.2863  0.9312 -0.4992
    7LYS    HG1  140   2.761   3.872   1.032 -0.2846  1.0420 -1.3980
    7LYS    HG2  141   2.639   3.923   1.143 -0.2372  0.9474 -0.4792
    7LYS     CD  142   2.571   3.895   0.936 -0.1255 -0.1974  0.1575
    7LYS    HD1  143   2.484   3.958   0.952  1.0053  1.2811  0.6617
    7LYS    HD2  144   2.603   3.937   0.841  0.8578 -3.0941 -0.9056
    7LYS     CE  145   2.548   3.749   0.926  0.1280 -0.2120 -1.0261
    7LYS    HE1  146   2.644   3.698   0.934 -0.3900 -0.9305  1.2101
    7LYS    HE2  147   2.497   3.709   1.014  1.5105 -2.2375 -1.0641
    7LYS     NZ  148   2.468   3.713   0.811 -0.8513  0.0432  0.6764
    7LYS    HZ1  149   2.433   3.618   0.804  2.4201 -1.7083  4.1549
    7LYS    HZ2  150   2.388   3.774   0.807 -0.7822  0.1144  0.3346
    7LYS    HZ3  151   2.527   3.722   0.729 -0.8718 -1.7420  0.4207
    7LYS      C  152   2.864   4.266   1.137  0.3872 -0.3510  0.5574
    7LYS      O  153   2.879   4.331   1.033  0.4870  0.2790  0.0419
    8ILE      N  154   2.865   4.323   1.259 -1.1393  0.8002  0.4027
    8ILE      H  155   2.858   4.252   1.331  0.9879 -1.3348 -1.3411
    8ILE     CA  156   2.887   4.469   1.284  0.0235 -0.1205 -0.5552
    8ILE     HA  157   2.855   4.536   1.205  0.4643  2.7382  1.5275
    8ILE     CB  158   2.805   4.509   1.409 -0.9003 -0.8571  0.8620
    8ILE     HB  159   2.828   4.438   1.489  0.1468 -1.2452  0.2470
    8ILE    CG1  160   2.654   4.508   1.383 -0.2610  0.6032  0.5755
    8ILE   HG11  161   2.605   4.412   1.371 -0.4776  0.4346  2.5157
    8ILE   HG12  162   2.604   4.536   1.476 -0.8145 -0.7718  0.7157
    8ILE    CG2  163   2.851   4.645   1.459 -0.5090 -0.0596 -0.2029
    8ILE   HG21  164   2.867   4.712   1.374  0.2618  0.0519  0.0221
    8ILE   HG22  165   2.785   4.685   1.536  0.6854 -0.4022  1.0384
    8ILE   HG23  166   2.950   4.632   1.503  0.6769 -0.1646 -2.7471
    8ILE     CD  167   2.606   4.602   1.271 -0.4287 -0.0440 -0.3846
    8ILE    HD1  168   2.501   4.629   1.281  0.0627  2.4931 -1.2671
    8ILE    HD2  169   2.657   4.698   1.262  0.4085 -0.2924  1.3894
    8ILE    HD3  170   2.617   4.552   1.174 -1.2451 -0.4448 -0.2712
    8ILE      C  171   3.042   4.480   1.300  0.0719  0.2457  0.0423
    8ILE      O  172   3.098   4.582   1.245 -0.1109 -0.0340  0.0867
    9GLY      N  173   3.111   4.391   1.374  0.1974  0.3605 -0.0900
    9GLY      H  174   3.051   4.321   1.415 -0.0947  0.2174 -0.7445
    9GLY     CA  175   3.257   4.372   1.367 -0.1544  0.1405  0.3436
    9GLY    HA1  176   3.314   4.457   1.329  0.1921  0.8152  2.2664
    9GLY    HA2  177   3.283   4.367   1.473 -0.7419 -0.7044  0.4564
    9GLY      C  178   3.284   4.233   1.302 -0.0525  0.1363 -0.2393
    9GLY      O  179   3.295   4.130   1.364 -0.4546  0.4878 -0.5355
   10ALA      N  180   3.316   4.238   1.169 -0.2683 -0.0072 -0.5568
   10ALA      H  181   3.320   4.330   1.129  0.6449 -0.4645 -1.5543
   10ALA     CA  182   3.335   4.121   1.087 -0.6827  0.1744  0.3789
   10ALA     HA  183   3.271   4.036   1.111  0.5009 -0.9229 -0.2204
   10ALA     CB  184   3.324   4.168   0.939 -0.1654 -0.1978  0.3440
   10ALA    HB1  185   3.226   4.213   0.923  0.3890  1.2362  0.7781
   10ALA    HB2  186   3.388   4.254   0.919 -1.3917  1.5286  3.1642
   10ALA    HB3  187   3.344   4.089   0.867  0.2792  1.1303 -1.0396
   10ALA      C  188   3.479   4.065   1.090 -0.3828 -0.2265  0.0150
   10ALA      O  189   3.497   3.943   1.091 -0.3459 -0.3133 -0.1772
   11VAL      N  190   3.577   4.155   1.101  0.0677 -0.4018 -0.2506
   11VAL      H  191   3.553   4.251   1.119  0.5890  0.1188 -2.0474
   11VAL     CA  192   3.715   4.121   1.115  0.0390  0.4017 -0.3345
   11VAL     HA  193   3.737   4.042   1.044  0.3208  1.0612 -0.9891
   11VAL     CB  194   3.815   4.232   1.068  0.3884  0.4869  0.4485
   11VAL     HB  195   3.904   4.173   1.049 -0.1438 -0.8520  1.9634
   11VAL    CG1  196   3.778   4.300   0.931  0.8644 -0.6239  0.1014
   11VAL   HG11  197   3.724   4.239   0.860  1.3363  0.6432 -1.4096
   11VAL   HG12  198   3.714   4.386   0.950  0.2364 -0.8661 -0.8782
   11VAL   HG13  199   3.873   4.328   0.884  0.9300 -1.1692 -0.1014
   11VAL    CG2  200   3.832   4.345   1.164  0.3621  0.2340 -0.0779
   11VAL   HG21  201   3.880   4.307   1.254  0.1854  0.3476  0.0652
   11VAL   HG22  202   3.892   4.423   1.118 -0.4784  0.2806 -1.1182
   11VAL   HG23  203   3.736   4.391   1.190  1.4152  2.1971  0.6007
   11VAL      C  204   3.750   4.074   1.257  0.7157  0.5567  0.6555
   11VAL      O  205   3.855   4.007   1.273 -0.5006  0.1370 -0.5606
   12LEU      N  206   3.668   4.101   1.363 -0.5756  0.2655  0.7316
   12LEU      H  207   3.576   4.138   1.343 -1.0199 -0.0044  2.1726
   12LEU     CA  208   3.709   4.094   1.506  0.5997 -0.5624  0.5118
   12LEU     HA  209   3.815   4.119   1.509 -0.0557  2.5859  1.1718
   12LEU     CB  210   3.619   4.195   1.587 -0.2263  0.5460 -0.0624
   12LEU    HB1  211   3.514   4.169   1.591 -0.8233  2.5580 -0.9068
   12LEU    HB2  212   3.641   4.189   1.693 -0.9937  3.9932  0.4248
   12LEU     CG  213   3.627   4.340   1.536  0.3457  0.1462 -0.5892
   12LEU     HG  214   3.580   4.348   1.439  1.4222  1.4696 -1.0282
   12LEU    CD1  215   3.551   4.427   1.640 -0.5172  0.7147  0.0556
   12LEU   HD11  216   3.526   4.526   1.602 -2.1411  0.6309  0.8213
   12LEU   HD12  217   3.458   4.370   1.649 -0.0309 -0.0868  0.1448
   12LEU   HD13  218   3.597   4.435   1.739 -0.3134  1.5101 -0.1020
   12LEU    CD2  219   3.770   4.395   1.521 -0.1636 -0.6335 -0.7637
   12LEU   HD21  220   3.818   4.408   1.619 -0.9259  0.2052 -0.4913
   12LEU   HD22  221   3.838   4.329   1.466 -0.8776 -1.2643 -0.8940
   12LEU   HD23  222   3.774   4.499   1.487 -1.4559  0.4126  1.9434
   12LEU      C  223   3.698   3.955   1.565 -0.6205 -0.2422  0.0080
   12LEU      O  224   3.721   3.932   1.682  0.5054  0.1550  0.0023
   13LYS      N  225   3.680   3.857   1.468 -0.7210 -0.2681 -0.1852
   13LYS      H  226   3.643   3.892   1.381 -2.3908  0.4494  0.7622
   13LYS     CA  227   3.675   3.714   1.501  0.1858 -0.1355 -0.0516
   13LYS     HA  228   3.632   3.694   1.599  0.9918  0.3540  0.4129
   13LYS     CB  229   3.609   3.644   1.386 -1.0161  0.6030 -0.8283
   13LYS    HB1  230   3.657   3.656   1.289  2.0652  1.4489  0.6716
   13LYS    HB2  231   3.618   3.538   1.412 -0.1517  0.7568 -0.4639
   13LYS     CG  232   3.466   3.684   1.376  0.2540 -0.1740 -0.6747
   13LYS    HG1  233   3.424   3.691   1.477  1.8358  0.2129 -0.0066
   13LYS    HG2  234   3.462   3.780   1.324 -2.8230 -0.0502 -0.3979
   13LYS     CD  235   3.379   3.604   1.271 -0.8376  0.2852 -0.1056
   13LYS    HD1  236   3.441   3.597   1.182  0.5590 -2.3081  0.9867
   13LYS    HD2  237   3.359   3.504   1.309 -1.7584  1.0344  1.5000
   13LYS     CE  238   3.238   3.669   1.241  0.0285 -0.6899 -0.3892
   13LYS    HE1  239   3.169   3.670   1.326 -0.7456 -3.0763 -0.9304
   13LYS    HE2  240   3.251   3.777   1.228  2.6099 -0.8276  0.4689
   13LYS     NZ  241   3.171   3.599   1.136 -0.6838  0.1712 -0.2245
   13LYS    HZ1  242   3.079   3.638   1.119 -0.1476  1.6182  0.0050
   13LYS    HZ2  243   3.227   3.619   1.054  0.5746  0.4671  0.6636
   13LYS    HZ3  244   3.169   3.500   1.153 -0.6238 -0.0584 -1.4360
   13LYS      C  245   3.820   3.666   1.505 -0.5183  0.2097  0.0754
   13LYS      O  246   3.847   3.557   1.551 -0.0034 -0.0050 -0.0927
   14VAL      N  247   3.913   3.743   1.443 -0.0829  0.1986 -0.1343
   14VAL      H  248   3.873   3.828   1.406  1.4341  1.0856  0.1759
   14VAL     CA  249   4.055   3.707   1.422 -0.1097  0.2283  1.1258
   14VAL     HA  250   4.088   3.633   1.495  1.7752 -1.0091 -0.8541
   14VAL     CB  251   4.063   3.630   1.282 -0.4551 -0.3962 -0.2452
   14VAL     HB  252   4.023   3.530   1.300 -1.0844 -0.1195 -0.0924
   14VAL    CG1  253   3.988   3.692   1.166  0.4961 -0.1158  0.8834
   14VAL   HG11  254   3.880   3.710   1.172  0.6385  1.7734 -0.9010
   14VAL   HG12  255   4.025   3.793   1.149  0.7702 -0.3532  0.0462
   14VAL   HG13  256   3.996   3.635   1.073 -1.2093  1.0828 -0.0549
   14VAL    CG2  257   4.209   3.601   1.234 -0.1324 -0.4101  0.1867
   14VAL   HG21  258   4.203   3.562   1.133  0.3829 -0.6226  0.2386
   14VAL   HG22  259   4.275   3.687   1.246 -3.1838  2.8125 -3.3310
   14VAL   HG23  260   4.258   3.521   1.289 -0.0150 -1.9386 -2.0280
   14VAL      C  261   4.143   3.827   1.443  0.1420 -0.5786 -0.4780
   14VAL      O  262   4.198   3.884   1.348  0.3110  0.7398  0.0910
   15LEU      N  263   4.144   3.871   1.569  0.4074 -0.3233  0.3715
   15LEU      H  264   4.101   3.810   1.637 -0.7627  0.0887  0.0309
   15LEU     CA  265   4.236   3.973   1.616  0.4874  0.0183  0.6198
   15LEU     HA  266   4.242   4.057   1.547  1.7457 -0.2915  0.3223
   15LEU     CB  267   4.189   4.029   1.751  0.4078 -0.3821 -0.3210
   15LEU    HB1  268   4.184   3.948   1.824  0.2983  0.5549  0.7397
   15LEU    HB2  269   4.267   4.101   1.776  1.2838 -1.9116  1.6276
   15LEU     CG  270   4.052   4.100   1.755  0.9215 -0.5271 -0.1787
   15LEU     HG  271   3.986   4.043   1.690 -0.3229  0.7037 -0.0400
   15LEU    CD1  272   3.988   4.110   1.902  0.4331  0.1962  0.0635
   15LEU   HD11  273   3.987   4.012   1.950  1.4051 -0.0666 -0.4238
   15LEU   HD12  274   4.044   4.175   1.968  1.1699 -1.6081  1.3054
   15LEU   HD13  275   3.885   4.144   1.896  1.0953  2.4599  0.6720
   15LEU    CD2  276   4.050   4.243   1.695  0.1227 -0.1014 -0.6283
   15LEU   HD21  277   3.975   4.304   1.745 -1.5047 -0.8305 -2.0786
   15LEU   HD22  278   4.148   4.285   1.714 -0.2709  0.0719  1.2564
   15LEU   HD23  279   4.029   4.242   1.588 -1.2147  0.4097 -0.3861
   15LEU      C  280   4.370   3.914   1.655 -0.0815  0.2398 -0.8853
   15LEU     O1  281   4.475   3.977   1.626 -0.2676  0.8904 -0.2423
   15LEU     O2  282   4.371   3.802   1.711 -0.1595 -0.2497 -0.1150
   16LIG    H00  283   3.255   4.194   1.943  0.2550  2.5203 -0.3313
   16LIG    C01  284   3.342   4.154   1.891 -0.5527  0.1522  0.0431
   16LIG    H02  285   3.344   4.215   1.800  0.9200  1.8474  1.1551
   16LIG    H03  286   3.440   4.166   1.937 -0.3136 -0.9793 -0.1425
   16LIG    C04  287   3.318   4.004   1.855 -0.0060 -0.0776  0.2759
   16LIG    O05  288   3.388   3.913   1.905  0.0297 -0.1670  0.2098
   16LIG    C06  289   3.224   3.974   1.735 -0.4513  0.3685 -0.2258
   16LIG    H07  290   3.264   4.000   1.637 -1.4037  1.3123 -0.3793
   16LIG    H08  291   3.200   3.868   1.726 -1.7345  0.7301 -1.2833
   16LIG    H09  292   3.133   4.033   1.735 -1.1283 -0.6561 -0.6365
   17SOL     OW  293   1.371   4.663   1.387 -0.2841 -0.1152 -0.5874
   17SOL    HW1  294   1.399   4.576   1.358 -1.0653  0.4278 -3.2736
   17SOL    HW2  295   1.422   4.679   1.466  0.9719 -2.4044 -0.8293
   18SOL     OW  296   5.751   2.848   1.581 -0.0186  0.0554 -0.3515
   18SOL    HW1  297   5.825   2.899   1.613  0.0983 -1.9346  2.9218
   18SOL    HW2  298   5.787   2.794   1.511  1.0889  0.6324 -0.2480
   19SOL     OW  299   3.992   6.194   2.822  0.0091 -0.8188 -0.1107
   19SOL    HW1  300   4.014   6.195   2.915  0.9346 -2.4007 -0.2775
   19SOL    HW2  301   4.064   6.241   2.779 -0.9449  0.8555  0.0224
   20SOL     OW  302   1.769   4.353   0.959 -0.1429 -0.0939 -0.3236
   20SOL    HW1  303   1.783   4.443   0.991 -0.0455  0.5937 -2.2115
   20SOL    HW2  304   1.697   4.320   1.014 -0.9497  1.5510 -0.3192
   21SOL     OW  305   2.524   3.574   1.789  0.6352  0.5134 -0.1120
   21SOL    HW1  306   2.582   3.517   1.840  0.2620  0.8541  0.7098
   21SOL    HW2  307   2.436   3.551   1.819  0.5109  2.0056  0.7670
   22SOL     OW  308   2.047   2.429   0.318 -0.0287  0.2227  0.3804
   22SOL    HW1  309   2.095   2.350   0.342 -0.1287  1.2206  4.5660
   22SOL    HW2  310   1.959   2.398   0.297  1.0447 -1.1173 -2.9339
   23SOL     OW  311   1.989   4.370  -0.008  0.5468  0.3540 -0.0506
   23SOL    HW1  312   2.061   4.415  -0.052  0.2702  0.7818 -0.0697
   23SOL    HW2  313   1.983   4.412   0.078  0.5616  0.0672  0.0914
   24SOL     OW  314   3.710   3.018   0.021 -0.0591 -0.1726 -0.4718
   24SOL    HW1  315   3.672   2.935   0.050  0.1439 -0.0914  0.0262
   24SOL    HW2  316   3.634   3.075   0.007 -0.1197  0.3215  1.5160
   25SOL     OW  317   3.576   4.784   0.532  0.0804 -0.6121 -0.7863
   25SOL    HW1  318   3.509   4.816   0.593  0.8073  2.9084 -1.6404
   25SOL    HW2  319   3.632   4.728   0.586  1.1721  2.9660  2.1775
   26SOL     OW  320   4.668   1.232   1.054  0.1089  0.0572 -0.1963
   26SOL    HW1  321   4.701   1.172   1.121  0.1791 -1.5627 -1.6082
   26SOL    HW2  322   4.746   1.280   1.024  0.1151  0.6202  0.6699
   27SOL     OW  323   1.943   4.909   2.558  0.5207 -0.0495  0.4614
   27SOL    HW1  324   1.882   4.893   2.631  0.3314  0.1565  0.3500
   27SOL    HW2  325   2.028   4.919   2.600  0.5108 -0.5364  0.6025
   28SOL     OW  326   0.845   4.574   0.456 -0.7712 -0.0818  0.0618
   28SOL    HW1  327   0.816   4.484   0.443  1.0615 -0.7597  0.3161
   28SOL    HW2  328   0.789   4.626   0.399 -1.7304 -1.4086 -0.2440
   29SOL     OW  329   4.439   5.097   2.502 -0.0058 -0.1542  0.1202
   29SOL    HW1  330   4.411   5.168   2.444  0.6767 -0.3948 -0.5239
   29SOL    HW2  331   4.366   5.035   2.500  0.0632 -0.2179 -0.5797
   30SOL     OW  332   4.581   2.972   0.164  0.1960 -0.0058  0.0897
   30SOL    HW1  333   4.601   3.061   0.136  0.7284 -0.4888 -1.1451
   30SOL    HW2  334   4.644   2.917   0.116 -0.0059 -1.0249  0.9666
   31SOL     OW  335   4.944   1.951   2.249 -0.2117  0.2940 -0.3814
   31SOL    HW1  336   5.033   1.977   2.269 -0.0366  0.3299 -1.1631
   31SOL    HW2  337   4.889   2.016   2.291  0.1189  0.1197  0.3291
   32SOL     OW  338   4.502   4.724   1.207 -0.1814 -0.7138 -0.4922
   32SOL    HW1  339   4.552   4.658   1.255 -1.6431 -0.7934  1.0394
   32SOL    HW2  340   4.565   4.794   1.191  0.8182 -1.4844 -0.0675
   33SOL     OW  341   5.744   6.409   2.861 -0.1787 -0.6094  0.2047
   33SOL    HW1  342   5.671   6.359   2.823 -1.1617  0.0281  1.1916
   33SOL    HW2  343   5.800   6.342   2.901 -2.4910 -0.9179  3.2605
   34SOL     OW  344   3.593   4.710   0.050 -0.1271 -0.2616  0.3288
   34SOL    HW1  345   3.637   4.762  -0.016 -0.0055 -3.6021 -2.4919
   34SOL    HW2  346   3.611   4.756   0.133  1.7229  2.8326 -1.5966
   35SOL     OW  347   4.418   2.760   2.429 -0.4102 -0.0221 -0.0807
   35SOL    HW1  348   4.498   2.796   2.391  0.4750 -0.4916  1.2691
   35SOL    HW2  349   4.361   2.743   2.354  0.8930 -0.0064 -1.1015
   36SOL     OW  350   2.859   5.956   2.742 -0.3575  0.1633 -0.2904
   36SOL    HW1  351   2.923   5.932   2.675 -1.3140 -1.7695 -0.5846
   36SOL    HW2  352   2.786   5.994   2.694 -0.0811  0.9429 -0.1032
   37SOL     OW  353   3.245   5.604   2.339 -0.0693 -0.1159 -0.2476
   37SOL    HW1  354   3.252   5.661   2.416 -2.4528 -1.0147  0.7461
   37SOL    HW2  355   3.167   5.635   2.293 -0.5900 -1.6561 -0.4678
   38SOL     OW  356   3.843   2.318   0.629 -0.1335 -0.0268  0.3474
   38SOL    HW1  357   3.815   2.242   0.679  0.1586  0.2152  0.8849
   38SOL    HW2  358   3.932   2.337   0.661  0.6401 -0.7274 -1.2500
   39SOL     OW  359   3.138   1.966   2.450  0.4626  0.9294  0.1799
   39SOL    HW1  360   3.153   1.951   2.357  2.4578  1.7147  0.3225
   39SOL    HW2  361   3.097   2.053   2.454  0.6790  1.0349  0.0679
   40SOL     OW  362   3.024   1.715  -0.008 -0.1642 -0.1897 -0.5314
   40SOL    HW1  363   3.027   1.677   0.080  1.4919  2.9600  0.9214
   40SOL    HW2  364   2.970   1.793   0.001  1.0577  0.8898 -1.9534
   41SOL     OW  365   3.971   4.919   2.107 -0.0387  0.5519  0.0748
   41SOL    HW1  366   4.060   4.904   2.074 -0.0750 -0.3300  0.3644
   41SOL    HW2  367   3.985   4.953   2.196  0.0145  0.9093 -0.0676
   42SOL     OW  368   6.181   6.213   3.108 -1.2066 -0.1472  0.3661
   42SOL    HW1  369   6.106   6.227   3.165 -1.1537  1.2179  0.1442
   42SOL    HW2  370   6.174   6.122   3.081 -2.2692 -0.2934  1.0694
   43SOL     OW  371   2.078   2.855   0.940  0.2769  0.4276  0.5103
   43SOL    HW1  372   2.106   2.943   0.914 -0.0917 -0.1321 -2.0967
   43SOL    HW2  373   2.112   2.798   0.871 -2.9016 -0.9402 -0.0892
   44SOL     OW  374   2.691   2.744   0.668 -0.1317  0.5194  0.1398
   44SOL    HW1  375   2.738   2.672   0.628 -2.2771 -1.5755  1.1377
   44SOL    HW2  376   2.759   2.800   0.705  1.6285 -0.5932 -1.2292
   45SOL     OW  377   6.238   2.864   2.879 -0.6853  0.0979  0.0178
   45SOL    HW1  378   6.193   2.791   2.837 -2.4108  0.4291  1.2082
   45SOL    HW2  379   6.178   2.938   2.872  1.5221  1.8741 -2.2779
   46SOL     OW  380   2.271   3.434   3.109 -0.2768 -0.2641  0.9704
   46SOL    HW1  381   2.366   3.434   3.110 -0.2246 -2.5428  1.0181
   46SOL    HW2  382   2.247   3.347   3.076 -2.3537  0.8993 -0.8777
   47SOL     OW  383   3.541   5.208   2.705  0.4330 -0.0608  0.2451
   47SOL    HW1  384   3.543   5.286   2.760  0.1747  0.1994 -0.1088
   47SOL    HW2  385   3.472   5.153   2.743 -0.8003  0.7767 -0.6838
   48SOL     OW  386   4.467   2.801   1.652 -0.0547 -0.4168 -0.3347
   48SOL    HW1  387   4.436   2.837   1.569  0.4337  0.4649 -0.1419
   48SOL    HW2  388   4.433   2.711   1.653 -1.4084  0.0694 -0.7591
   49SOL     OW  389   0.128   3.764   0.036  0.6815 -0.4476 -0.0418
   49SOL    HW1  390   0.175   3.747  -0.045  2.1752 -0.2667  0.7404
   49SOL    HW2  391   0.066   3.833   0.015  0.1376 -1.3130 -1.3288
   50SOL     OW  392   0.814   5.074   0.827 -0.2798 -0.5032 -0.7083
   50SOL    HW1  393   0.861   5.158   0.830 -1.2700  0.0489  0.1399
   50SOL    HW2  394   0.875   5.012   0.866  0.4427 -0.1682 -1.2794
   51SOL     OW  395   3.844   3.759   2.577 -0.9012  0.7464  0.4653
   51SOL    HW1  396   3.833   3.719   2.490  2.1176  0.0243  0.2945
   51SOL    HW2  397   3.831   3.852   2.563  1.1702  0.8777 -1.2466
   52SOL     OW  398   6.319   4.285   2.790 -0.1321 -0.1956 -0.1874
   52SOL    HW1  399   6.253   4.293   2.858  0.0041  0.6946 -0.1558
   52SOL    HW2  400   6.378   4.359   2.803 -0.7572  0.6789 -1.9672
   53SOL     OW  401   4.590   1.458   0.230  0.8425  0.1288  0.0795
   53SOL    HW1  402   4.617   1.476   0.140 -0.7873 -3.2307 -1.2559
   53SOL    HW2  403   4.521   1.392   0.221 -1.9645  2.2581  3.6610
   54SOL     OW  404   4.228   3.684   0.207 -0.0830  0.2045  0.6260
   54SOL    HW1  405   4.196   3.635   0.132 -1.9938  0.2388  1.3631
   54SOL    HW2  406   4.282   3.621   0.256  0.2150 -0.1531 -0.1482
   55SOL     OW  407   2.495   2.692   0.839  0.3826  0.0396 -0.4464
   55SOL    HW1  408   2.541   2.720   0.760  1.4645  0.3531  0.2745
   55SOL    HW2  409   2.547   2.619   0.873  0.1204  0.1271  0.1680
   56SOL     OW  410   1.568   1.186   0.389 -0.2815 -0.0798 -0.4332
   56SOL    HW1  411   1.583   1.091   0.389  2.5178  0.2860 -0.4918
   56SOL    HW2  412   1.477   1.195   0.360 -1.6980 -2.8189  2.5316
   57SOL     OW  413   3.779   3.148   1.581  0.0485  0.2937 -0.1699
   57SOL    HW1  414   3.779   3.193   1.497 -1.0851 -0.6545 -0.7041
   57SOL    HW2  415   3.717   3.076   1.570  0.8350 -0.6119  1.0785
   58SOL     OW  416   3.267   2.574   2.417 -0.1074 -0.0306 -0.4575
   58SOL    HW1  417   3.215   2.516   2.473  1.0543  0.1088  0.8285
   58SOL    HW2  418   3.335   2.608   2.475  0.6550  0.7689 -1.7776
   59SOL     OW  419   2.661   5.825   2.537  0.3538  0.1345  0.3493
   59SOL    HW1  420   2.684   5.733   2.521  1.0613  0.1538  1.1462
   59SOL    HW2  421   2.692   5.872   2.460 -0.0689 -0.3075 -0.0928
   60SOL     OW  422   4.028   4.020   3.313  0.2543 -0.2927  0.3080
   60SOL    HW1  423   3.972   3.949   3.282 -0.2484  0.8978 -1.7431
   60SOL    HW2  424   4.116   3.985   3.308 -0.0585 -1.0835  0.2250
   61SOL     OW  425   4.531   3.847   1.384 -0.1534  0.2608 -0.1141
   61SOL    HW1  426   4.539   3.766   1.434 -0.2005  1.3364  1.7362
   61SOL    HW2  427   4.519   3.915   1.450 -0.3535  1.7627 -1.6171
   62SOL     OW  428   3.098   5.513   2.776 -0.8904 -0.0519 -0.4902
   62SOL    HW1  429   3.126   5.602   2.758 -0.0831 -0.0044  0.8376
   62SOL    HW2  430   3.151   5.458   2.719 -1.4379  0.3024 -1.3603
   63SOL     OW  431   4.275   2.660   3.284 -0.3660  0.4222 -0.0803
   63SOL    HW1  432   4.354   2.682   3.233  0.3763  0.0514  0.8728
   63SOL    HW2  433   4.291   2.700   3.370  0.0635 -1.9967  1.0316
   64SOL     OW  434   3.016   2.917   1.430  0.5663  0.1664 -0.8048
   64SOL    HW1  435   3.028   2.838   1.483  0.3441 -0.9453 -2.3598
   64SOL    HW2  436   3.104   2.955   1.425  0.9845 -0.8123 -1.2842
   65SOL     OW  437   5.474   3.528   1.421 -0.9557 -0.0519 -0.0945
   65SOL    HW1  438   5.428   3.592   1.367 -0.1259  0.8234  0.2084
   65SOL    HW2  439   5.411   3.505   1.490 -2.1796 -1.4814 -1.5985
   66SOL     OW  440   3.611   0.694   0.427  0.1170  0.3155 -0.1962
   66SOL    HW1  441   3.618   0.652   0.513  1.8989 -0.1647 -0.5313
   66SOL    HW2  442   3.554   0.636   0.377 -0.3335  0.2022  0.4302
   67SOL     OW  443   2.092   4.389   1.211 -0.0240 -0.1418  0.0842
   67SOL    HW1  444   2.079   4.448   1.284  0.3586 -0.2394  0.2335
   67SOL    HW2  445   2.171   4.421   1.167  0.4296 -0.7848  0.4117
   68SOL     OW  446   3.974   2.269   1.050  0.9092 -0.1961 -0.0671
   68SOL    HW1  447   3.978   2.364   1.060  0.6062 -0.2306  0.4118
   68SOL    HW2  448   3.919   2.239   1.123  0.7046 -0.7045 -0.4223
   69SOL     OW  449   2.584   5.498   3.210 -0.6450 -0.1078  0.2159
   69SOL    HW1  450   2.660   5.451   3.174  0.7947  2.0189  0.2605
   69SOL    HW2  451   2.562   5.563   3.143 -0.0466  1.7112  1.7013
   70SOL     OW  452   0.801   1.307   0.880 -0.2768  0.3550 -0.4420
   70SOL    HW1  453   0.824   1.400   0.889 -0.6223  0.4755 -0.7936
   70SOL    HW2  454   0.752   1.302   0.798 -3.1887  0.4596  1.1565
   71SOL     OW  455   0.252   3.607   0.320  0.6175 -0.4124 -0.0728
   71SOL    HW1  456   0.222   3.517   0.309  0.4716 -0.4217  0.3931
   71SOL    HW2  457   0.298   3.627   0.238 -0.3603 -0.5102 -0.6563
   72SOL     OW  458   3.740   3.565   2.153 -0.3694  0.1473  0.0837
   72SOL    HW1  459   3.743   3.623   2.077 -1.1497 -1.2279 -1.0501
   72SOL    HW2  460   3.772   3.481   2.120 -3.8120 -1.4318  0.3075
   73SOL     OW  461   5.561   3.082   2.654 -0.5444 -0.4096 -0.1637
   73SOL    HW1  462   5.524   3.088   2.566  1.9531 -0.7912 -1.3088
   73SOL    HW2  463   5.570   3.173   2.682 -1.9289 -0.2976  0.0050
   74SOL     OW  464   6.766   5.809   2.936  0.0530 -0.2216 -0.3088
   74SOL    HW1  465   6.859   5.808   2.956  0.0289  0.6546 -0.1010
   74SOL    HW2  466   6.747   5.901   2.915 -1.1266 -0.0231  1.4218
   75SOL     OW  467   0.819   2.269   0.154 -0.1419 -0.1028  0.1918
   75SOL    HW1  468   0.835   2.176   0.138 -1.2293 -0.0514 -1.4347
   75SOL    HW2  469   0.771   2.299   0.077  1.0636  2.0563  0.1959
   76SOL     OW  470   4.017   4.240   0.496  0.2183  0.4381  0.1406
   76SOL    HW1  471   4.022   4.272   0.406  0.4450 -0.2671 -0.1086
   76SOL    HW2  472   3.984   4.314   0.547 -0.8792  0.5380 -0.6785
   77SOL     OW  473   2.078   1.887   1.589 -0.9498  0.1949 -0.7007
   77SOL    HW1  474   2.150   1.891   1.527 -0.5211 -0.9750 -0.2959
   77SOL    HW2  475   2.034   1.805   1.570 -0.0140 -0.8606  1.3779
   78SOL     OW  476   4.399   3.967   0.459 -0.0332  0.3786 -0.2838
   78SOL    HW1  477   4.354   3.969   0.375 -0.0788 -0.8521 -0.3126
   78SOL    HW2  478   4.429   3.876   0.468 -1.0477  0.1654  1.5352
   79SOL     OW  479   3.992   5.564   2.913  0.1638  0.4313  0.2721
   79SOL    HW1  480   3.942   5.553   2.832 -2.2990 -0.0166  1.7462
   79SOL    HW2  481   4.010   5.658   2.918 -1.0848  0.7012 -0.0268
   80SOL     OW  482   5.858   5.379   2.389  0.0747  1.0685  0.2222
   80SOL    HW1  483   5.934   5.417   2.346  1.2149  1.7268  2.6256
   80SOL    HW2  484   5.895   5.319   2.454 -1.5938 -1.3339 -0.8626
   81SOL     OW  485   3.203   5.755   2.739 -0.3272  0.6201 -0.1401
   81SOL    HW1  486   3.299   5.747   2.738 -0.3902 -2.5436  1.9888
   81SOL    HW2  487   3.185   5.818   2.809  0.3338 -1.5242  2.1477
   82SOL     OW  488   2.953   0.748   0.058 -0.5879  0.1337 -0.0578
   82SOL    HW1  489   2.915   0.733   0.144 -0.7619  0.3044 -0.1024
   82SOL    HW2  490   2.986   0.838   0.062 -0.2322  0.0029 -0.0357
   83SOL     OW  491   0.893   2.001   0.563 -0.4262 -1.0480  0.1444
   83SOL    HW1  492   0.987   2.018   0.549 -0.7448  0.7742 -0.1522
   83SOL    HW2  493   0.890   1.938   0.634  1.0157  0.4195  1.5923
   84SOL     OW  494   0.789   1.522   0.153  0.1086 -0.2947 -0.0594
   84SOL    HW1  495   0.783   1.462   0.079 -1.1917 -1.2391  0.7770
   84SOL    HW2  496   0.852   1.481   0.213  0.2307 -0.1525 -0.0906
   85SOL     OW  497   3.684   3.910   0.663  0.0243 -0.0421  0.4510
   85SOL    HW1  498   3.657   3.912   0.755 -0.0811  2.5165  0.4419
   85SOL    HW2  499   3.603   3.927   0.615  0.4435  0.7595  0.0228
   86SOL     OW  500   2.892   4.296   0.579 -0.9316 -0.7726 -0.7373
   86SOL    HW1  501   2.977   4.324   0.545  0.3737 -1.2809  1.8800
   86SOL    HW2  502   2.833   4.367   0.554  1.0936  1.6052  0.7120
   87SOL     OW  503   4.903   4.676   3.261 -0.2967 -0.2609  0.3352
   87SOL    HW1  504   4.841   4.687   3.334 -1.6996 -0.8473 -0.7161
   87SOL    HW2  505   4.879   4.745   3.200  0.7083  0.0689  0.3060
   88SOL     OW  506   5.334   2.149   1.125  0.1894 -0.0924  0.2213
   88SOL    HW1  507   5.252   2.175   1.082  1.2034  1.5597 -0.8574
   88SOL    HW2  508   5.361   2.227   1.174  1.4964 -0.3049 -0.1109
   89SOL     OW  509   5.347   2.224   1.693 -0.6253  0.4631 -0.8253
   89SOL    HW1  510   5.313   2.203   1.606  0.4762 -0.0209 -1.1570
   89SOL    HW2  511   5.441   2.207   1.687 -0.8452 -2.3247  1.2295
   90SOL     OW  512   3.788   5.471   1.491  0.8171  0.4819  0.5196
   90SOL    HW1  513   3.842   5.392   1.496  0.6867  0.3068 -0.6106
   90SOL    HW2  514   3.731   5.457   1.416  0.5271  1.4986  0.5285
   91SOL     OW  515   2.697   5.895   3.255 -0.0352 -0.1952 -0.0209
   91SOL    HW1  516   2.620   5.879   3.309  0.9288 -1.8889  0.9441
   91SOL    HW2  517   2.687   5.836   3.181 -0.4060  0.7375 -0.7430
   92SOL     OW  518   0.791   2.572   1.069  0.2144 -0.0577  0.3337
   92SOL    HW1  519   0.767   2.514   0.998  0.7855  0.8346 -0.6077
   92SOL    HW2  520   0.876   2.540   1.100  0.1473 -0.2065  0.3659
   93SOL     OW  521   5.242   1.673   1.816 -0.0381  0.1056  0.8050
   93SOL    HW1  522   5.337   1.669   1.825 -0.0666 -0.3590  0.9171
   93SOL    HW2  523   5.223   1.766   1.802  0.3775  0.2794  1.3543
   94SOL     OW  524   5.042   2.923   2.207  0.0615 -0.4139 -0.3144
   94SOL    HW1  525   5.126   2.968   2.201 -0.6805  0.9184 -1.1987
   94SOL    HW2  526   4.997   2.946   2.125 -0.5073 -2.4771 -0.6382
   95SOL     OW  527   1.143   1.852   1.274 -0.1382 -0.2459 -0.3339
   95SOL    HW1  528   1.209   1.919   1.257 -0.6016  0.2562 -0.2160
   95SOL    HW2  529   1.078   1.896   1.329 -2.6889  0.6295 -3.6515
   96SOL     OW  530   4.295   6.501   2.927 -0.3183 -0.0024  0.7482
   96SOL    HW1  531   4.318   6.445   3.002 -1.4728 -0.7537  0.5661
   96SOL    HW2  532   4.204   6.526   2.943 -0.8197 -0.7853 -0.7724
   97SOL     OW  533   5.012   3.320   3.267  0.1513 -0.0283  0.0403
   97SOL    HW1  534   4.945   3.353   3.327 -0.2339 -0.6582 -0.0328
   97SOL    HW2  535   4.970   3.325   3.180  0.4892  0.3180 -0.1060
   98SOL     OW  536   2.452   2.163   2.839  0.2346  0.7126 -0.3109
   98SOL    HW1  537   2.364   2.175   2.803 -0.1963  1.4830  0.9418
   98SOL    HW2  538   2.460   2.069   2.853 -0.6861  0.7180  0.2895
   99SOL     OW  539   3.170   2.866   1.747  0.3116  0.1460 -0.1641
   99SOL    HW1  540   3.154   2.956   1.718 -1.4813 -0.4135 -1.0799
   99SOL    HW2  541   3.083   2.827   1.752  1.0122 -1.3769  0.7950
  100SOL     OW  542   3.908   2.253   1.624  0.2605 -0.0758  0.8435
  100SOL    HW1  543   3.836   2.189   1.617  0.5466 -0.3958  0.7846
  100SOL    HW2  544   3.922   2.263   1.718 -0.1581  0.3265  0.8662
  101SOL     OW  545   2.287   6.919   3.145  0.0793 -0.2954  0.4695
  101SOL    HW1  546   2.309   6.908   3.237  2.0754  0.9736  0.1849
  101SOL    HW2  547   2.347   6.861   3.099 -1.6107 -1.7256 -0.0285
  102SOL     OW  548   2.238   2.428   3.004  0.4274  0.5429 -0.0852
  102SOL    HW1  549   2.271   2.348   3.046  0.8802  1.2494  0.9343
  102SOL    HW2  550   2.143   2.416   3.003  0.4779  0.0841  0.2557
  103SOL     OW  551   6.161   2.989   2.039 -0.0345  0.3659  0.0226
  103SOL    HW1  552   6.120   3.032   2.114  0.4410 -0.4196  0.7482
  103SOL    HW2  553   6.130   3.039   1.963 -2.9983 -0.6388  0.4204
  104SOL     OW  554   3.262   4.237   2.807  0.4500  0.3566  0.4292
  104SOL    HW1  555   3.228   4.291   2.879 -0.5432  1.7578 -1.0254
  104SOL    HW2  556   3.314   4.297   2.755  0.0169 -0.2860 -0.7819
  105SOL     OW  557   0.758   1.570   0.935 -0.1618  0.0196 -0.7614
  105SOL    HW1  558   0.669   1.570   0.898  0.3190  2.2795 -2.1201
  105SOL    HW2  559   0.760   1.649   0.989  0.6325 -0.7469  0.3554
  106SOL     OW  560   0.479   1.362   0.200  0.3705  0.4847 -0.0736
  106SOL    HW1  561   0.420   1.290   0.223  1.0049  0.3712  1.2297
  106SOL    HW2  562   0.425   1.421   0.148 -1.3935  1.2182  2.4753
  107SOL     OW  563   1.631   1.383   1.999  0.1666 -0.0893 -0.5525
  107SOL    HW1  564   1.696   1.422   1.941  0.4173  1.7213  0.8632
  107SOL    HW2  565   1.547   1.412   1.964  0.2523 -0.0930 -0.7608
  108SOL     OW  566   2.090   3.253   1.808  1.0685  0.4031 -0.5572
  108SOL    HW1  567   2.100   3.164   1.775 -0.9280  0.6441 -1.9556
  108SOL    HW2  568   2.056   3.303   1.734  2.1384  2.3595  0.1900
  109SOL     OW  569   5.515   5.098   2.817 -0.0388 -0.2409  0.0953
  109SOL    HW1  570   5.524   5.100   2.721 -1.1921 -1.2869 -0.0570
  109SOL    HW2  571   5.543   5.185   2.845  0.7289 -0.0518 -1.1516
  110SOL     OW  572   2.939   2.171   2.449  0.2631  0.3328 -0.2284
  110SOL    HW1  573   2.853   2.158   2.411  0.2889 -0.7860  0.0436
  110SOL    HW2  574   2.927   2.153   2.543  1.0787 -1.4781 -0.4146
  111SOL     OW  575   3.297   3.579   2.755 -0.2854  0.7835 -0.0132
  111SOL    HW1  576   3.247   3.587   2.674  0.9432  0.0887 -0.8765
  111SOL    HW2  577   3.231   3.569   2.823 -1.3235 -0.2588 -1.1244
  112SOL     OW  578   3.322   4.369   2.302 -0.0693  0.3703 -0.2600
  112SOL    HW1  579   3.347   4.296   2.245 -0.2956 -0.5646  0.8156
  112SOL    HW2  580   3.331   4.335   2.391  0.1772  1.7767  0.2828
  113SOL     OW  581   4.910   4.074   1.901  0.1914 -0.0544 -0.2232
  113SOL    HW1  582   4.918   4.166   1.928  0.4469  0.7178 -2.6129
  113SOL    HW2  583   4.819   4.064   1.876  0.1013 -0.5481  0.2910
  114SOL     OW  584   4.404   5.059   0.471  0.0088  0.5255  0.5240
  114SOL    HW1  585   4.401   5.133   0.532 -0.2599 -0.1765  1.3772
  114SOL    HW2  586   4.330   5.074   0.412  0.5502  1.4548  0.0716
  115SOL     OW  587   2.372   6.152   1.892  0.4727 -0.3943 -0.1866
  115SOL    HW1  588   2.320   6.110   1.823 -0.2323  0.2165 -0.0425
  115SOL    HW2  589   2.355   6.098   1.970 -0.8788  0.4308  0.1332
  116SOL     OW  590   4.963   1.703   2.392 -0.5575  0.0374  0.6720
  116SOL    HW1  591   4.950   1.770   2.324 -2.0590 -1.5398 -0.6865
  116SOL    HW2  592   4.996   1.752   2.467  1.9430  1.7827 -1.3629
  117SOL     OW  593   2.604   3.889   3.105 -0.4311  0.3252 -0.0399
  117SOL    HW1  594   2.509   3.890   3.089 -0.4263  2.0775 -0.1420
  117SOL    HW2  595   2.614   3.926   3.192  0.0324 -2.4472  1.1736
  118SOL     OW  596   2.649   2.892   0.095 -0.0226 -0.0334  0.2086
  118SOL    HW1  597   2.656   2.981   0.130 -0.4753 -0.0089  0.2508
  118SOL    HW2  598   2.673   2.901   0.003 -0.8403  0.2924  0.0119
  119SOL     OW  599   1.644   1.872   2.039 -0.1083 -0.0526  0.0393
  119SOL    HW1  600   1.580   1.852   2.108 -1.8563  0.1264 -1.4525
  119SOL    HW2  601   1.670   1.962   2.056 -0.1940 -0.1445  0.7027
  120SOL     OW  602   3.244   3.153   1.932  0.0411  0.8208  0.0997
  120SOL    HW1  603   3.227   3.230   1.877  1.3500  1.6175  0.7638
  120SOL    HW2  604   3.176   3.157   1.999 -0.4701  0.8607 -0.4078
  121SOL     OW  605   2.904   3.651   1.048  0.0289 -0.3434 -0.5703
  121SOL    HW1  606   2.898   3.690   0.961 -0.2151 -0.8032 -0.7635
  121SOL    HW2  607   2.823   3.601   1.057  1.0202 -2.0758 -0.9574
  122SOL     OW  608   3.226   4.626   0.965 -0.2775 -0.6840  0.4688
  122SOL    HW1  609   3.293   4.632   0.896 -0.6972  0.4163  0.1457
  122SOL    HW2  610   3.276   4.631   1.047 -0.0550  2.1206  0.2527
  123SOL     OW  611   4.134   3.383   1.572  0.4933 -0.2251 -1.0161
  123SOL    HW1  612   4.102   3.428   1.650  1.0834 -1.5701  0.0296
  123SOL    HW2  613   4.055   3.355   1.527  0.0973  1.8264 -1.7329
  124SOL     OW  614   1.663   6.304   2.298 -0.4211  0.0352  0.3027
  124SOL    HW1  615   1.671   6.213   2.271 -1.7679  0.3748 -1.4333
  124SOL    HW2  616   1.571   6.326   2.283 -0.3687  1.4003  1.6755
  125SOL     OW  617   2.559   2.252   2.360 -0.2581  0.5720  0.1662
  125SOL    HW1  618   2.510   2.242   2.278 -0.0323  0.1048  0.0859
  125SOL    HW2  619   2.534   2.338   2.392  0.6405  1.3192 -1.0542
  126SOL     OW  620   4.925   0.499   0.255 -0.0448  0.4461 -0.4904
  126SOL    HW1  621   4.843   0.507   0.302 -0.0218 -2.3072  0.2123
  126SOL    HW2  622   4.993   0.521   0.320 -0.1486  2.2968 -0.9522
  127SOL     OW  623   2.044   4.173   0.308 -0.3352 -0.0731  0.5794
  127SOL    HW1  624   2.133   4.198   0.282  0.7783 -2.1276  2.1023
  127SOL    HW2  625   2.025   4.227   0.384 -1.3553  1.9343 -0.9976
  128SOL     OW  626   1.973   5.935   2.660 -0.2177 -0.2774  0.4374
  128SOL    HW1  627   1.963   6.019   2.615  1.7042  0.0463  0.5520
  128SOL    HW2  628   1.991   5.872   2.590 -0.4037 -0.3669  0.4689
  129SOL     OW  629   2.816   1.660   0.606  0.1659 -0.3006  0.2133
  129SOL    HW1  630   2.777   1.742   0.638  0.8941  0.2979 -0.3757
  129SOL    HW2  631   2.790   1.654   0.515 -1.5996 -1.8198  0.7622
  130SOL     OW  632   4.009   5.727   2.310  0.1964 -0.2087  0.1121
  130SOL    HW1  633   3.984   5.733   2.218  0.1523 -1.3429  0.0339
  130SOL    HW2  634   4.097   5.765   2.314 -0.3482  1.1317 -0.1284
  131SOL     OW  635   3.672   4.208   2.668  0.1849  0.1890 -0.1221
  131SOL    HW1  636   3.630   4.194   2.753  1.3395  0.7061  0.5564
  131SOL    HW2  637   3.736   4.277   2.684  1.5280 -0.7965 -1.0323
  132SOL     OW  638   3.888   3.967   0.500  0.0754 -0.1209 -0.0577
  132SOL    HW1  639   3.818   3.965   0.565 -0.1429 -1.0658 -0.3093
  132SOL    HW2  640   3.919   4.057   0.501 -0.8790  0.2097  0.3389
  133SOL     OW  641   5.871   3.347   2.249 -0.1917 -0.4209  0.0524
  133SOL    HW1  642   5.806   3.280   2.269  1.1015 -1.4199  1.0611
  133SOL    HW2  643   5.834   3.395   2.174 -2.0796 -0.9212  0.6167
  134SOL     OW  644   2.723   4.902   2.027 -0.2497 -0.3553  0.6098
  134SOL    HW1  645   2.706   4.935   2.115 -0.6673 -2.3006  1.3268
  134SOL    HW2  646   2.640   4.862   1.999 -0.0389 -0.0330 -0.5473
  135SOL     OW  647   3.281   1.663   0.249  0.4038  0.6583  0.7547
  135SOL    HW1  648   3.185   1.653   0.251  0.3565 -0.0313 -1.6059
  135SOL    HW2  649   3.295   1.755   0.270 -1.1043  1.6769 -2.1255
  136SOL     OW  650   6.209   6.570   2.563  0.5621  0.3055  0.1060
  136SOL    HW1  651   6.202   6.663   2.588  1.8417  0.3559  0.3808
  136SOL    HW2  652   6.122   6.547   2.531  0.2477  1.6317 -0.0681
  137SOL     OW  653   5.297   6.282   2.942 -0.8706  0.0486  0.2979
  137SOL    HW1  654   5.322   6.342   3.012  1.2313 -2.3408  1.7547
  137SOL    HW2  655   5.366   6.289   2.877  0.0073 -1.5126  1.0092
  138SOL     OW  656   4.915   3.162   1.001  0.5982  0.1371  0.1605
  138SOL    HW1  657   4.872   3.244   1.024  0.5610 -0.2343  1.5237
  138SOL    HW2  658   4.974   3.145   1.075  0.3056 -1.2545  0.0974
  139SOL     OW  659   2.570   3.347   3.132  0.6456  0.0425 -0.2462
  139SOL    HW1  660   2.511   3.292   3.183 -0.0737 -0.4394 -1.5363
  139SOL    HW2  661   2.655   3.303   3.138  0.7367  0.3587  1.0536
  140SOL     OW  662   2.663   2.415   1.785  0.3645  0.2310 -0.6130
  140SOL    HW1  663   2.717   2.377   1.717 -2.8252 -3.7946 -1.3132
  140SOL    HW2  664   2.586   2.449   1.739 -0.6917 -0.2285  0.7273
  141SOL     OW  665   3.276   5.146   1.298 -0.8805  0.1830  0.3475
  141SOL    HW1  666   3.361   5.150   1.341 -0.4637  1.6578 -0.5392
  141SOL    HW2  667   3.225   5.084   1.350  0.7345 -0.7504  0.8773
  142SOL     OW  668   4.441   2.998   3.185  0.1437 -0.2415 -0.7821
  142SOL    HW1  669   4.498   2.942   3.131  0.1230 -2.9638  1.7571
  142SOL    HW2  670   4.492   3.016   3.263 -1.1818  0.3567 -0.0191
  143SOL     OW  671   5.169   4.648   2.194  0.1048  0.0980  0.1252
  143SOL    HW1  672   5.121   4.690   2.266 -0.8085 -2.4619  1.1340
  143SOL    HW2  673   5.150   4.555   2.204  1.9247 -0.5909 -2.0344
  144SOL     OW  674   1.605   4.175   2.116 -0.1686  0.0368  0.0187
  144SOL    HW1  675   1.544   4.191   2.188  0.6184  0.4644  0.6138
  144SOL    HW2  676   1.605   4.257   2.066  1.2492  0.7369  1.0698
  145SOL     OW  677   1.589   2.298   0.798 -0.1464 -0.0126  0.8321
  145SOL    HW1  678   1.624   2.215   0.766 -0.0005 -0.2206  1.5155
  145SOL    HW2  679   1.649   2.325   0.867 -0.3952  0.4805  0.8623
  146SOL     OW  680   5.678   4.710   2.706  0.7509 -0.5148 -0.0753
  146SOL    HW1  681   5.676   4.800   2.674 -0.9071 -0.3471  0.4059
  146SOL    HW2  682   5.746   4.709   2.773  1.8796 -0.0298 -1.1799
  147SOL     OW  683   3.648   1.789   1.784 -0.0154  0.3155  0.2995
  147SOL    HW1  684   3.648   1.770   1.878 -0.6775  0.4794  0.3316
  147SOL    HW2  685   3.557   1.810   1.763  0.0166 -0.3189 -0.5017
  148SOL     OW  686   3.298   2.781   1.306 -0.0019  0.3356  0.0765
  148SOL    HW1  687   3.367   2.754   1.366 -0.6718 -0.2716  0.5777
  148SOL    HW2  688   3.270   2.701   1.263  0.1320  0.6941 -0.6966
  149SOL     OW  689   2.908   3.281   2.535  0.1264 -0.2461 -0.0254
  149SOL    HW1  690   2.871   3.198   2.566 -1.2058  0.3673  0.0959
  149SOL    HW2  691   2.871   3.292   2.447  0.8982 -0.1428 -0.3387
  150SOL     OW  692   0.907   2.101   0.907 -0.7216  0.0062  0.5790
  150SOL    HW1  693   0.851   2.026   0.888 -1.0380  0.4270 -0.1720
  150SOL    HW2  694   0.965   2.107   0.831 -0.2237  0.0985  0.9606
  151SOL     OW  695   2.831   6.125   2.971 -0.6315 -0.1854 -0.4182
  151SOL    HW1  696   2.855   6.206   2.926 -0.3900  0.2985  0.5512
  151SOL    HW2  697   2.826   6.059   2.901  0.6524  0.3288 -1.0241
  152SOL     OW  698   4.399   1.665   0.020  0.3656  0.5173 -0.1709
  152SOL    HW1  699   4.377   1.722   0.094 -1.3173  2.2751 -1.8870
  152SOL    HW2  700   4.337   1.593   0.026 -0.1590  0.9637 -0.1963
  153SOL     OW  701   4.345   3.966   1.123 -0.0279 -0.5210 -1.1036
  153SOL    HW1  702   4.296   3.940   1.202 -2.1713 -1.7536 -2.7108
  153SOL    HW2  703   4.308   3.911   1.054  1.8477  0.4500 -2.9666
  154SOL     OW  704   6.030   3.053   2.915  0.1613  0.5981 -0.3646
  154SOL    HW1  705   6.019   3.147   2.906 -1.4268  0.6887  1.7018
  154SOL    HW2  706   5.963   3.027   2.979  1.0763 -1.8071 -0.2725
  155SOL     OW  707   5.933   4.949   2.978 -0.1356  0.3329 -0.7636
  155SOL    HW1  708   5.915   4.860   2.947 -0.0619  0.4228 -1.0730
  155SOL    HW2  709   5.993   4.985   2.912  0.1333  0.4830 -0.4400
  156SOL     OW  710   7.080   3.817   3.347 -0.3745 -0.0671  0.2401
  156SOL    HW1  711   7.065   3.722   3.350  0.0646 -0.1430  0.0584
  156SOL    HW2  712   7.115   3.833   3.260  0.0324  0.1898  0.4474
  157SOL     OW  713   4.501   3.994   1.951 -0.0119  0.1255 -0.0940
  157SOL    HW1  714   4.553   3.979   2.031 -0.0075  0.6321  0.0044
  157SOL    HW2  715   4.478   3.907   1.921 -0.5749 -0.0661  0.8329
  158SOL     OW  716   5.090   3.039   1.171  0.4802  0.4381 -0.2179
  158SOL    HW1  717   5.158   3.069   1.232  1.6173 -2.3578  0.0326
  158SOL    HW2  718   5.138   3.002   1.097 -0.6688 -2.0399  0.1666
  159SOL     OW  719   1.322   1.047   0.597  0.4317 -0.0031 -0.4132
  159SOL    HW1  720   1.310   1.034   0.503 -1.3706 -0.6169 -0.1320
  159SOL    HW2  721   1.260   0.988   0.638 -1.2461  2.6029  1.1192
  160SOL     OW  722   3.594   4.536   2.619  0.3617  0.3595 -0.7740
  160SOL    HW1  723   3.543   4.582   2.686  0.2376  1.9184 -1.8761
  160SOL    HW2  724   3.680   4.523   2.660 -0.4709 -1.1184  0.6249
  161SOL     OW  725   1.850   2.816   2.353 -0.2863 -0.0613  0.4069
  161SOL    HW1  726   1.829   2.781   2.267 -2.6621 -1.3003  1.4079
  161SOL    HW2  727   1.876   2.906   2.337 -1.2761 -0.0868 -1.5411
  162SOL     OW  728   5.582   2.559   2.277 -0.3342  0.5754 -0.0222
  162SOL    HW1  729   5.487   2.572   2.280 -0.1910  1.7439 -0.2180
  162SOL    HW2  730   5.597   2.506   2.199 -0.7328  1.2224 -0.5395
  163SOL     OW  731   3.621   4.936   2.887  0.3239 -0.3674  0.2945
  163SOL    HW1  732   3.715   4.948   2.878  0.5142 -0.4744  1.9027
  163SOL    HW2  733   3.592   5.013   2.937 -0.6648  0.3044 -1.2289
  164SOL     OW  734   3.872   1.083   0.066  0.3489  0.5081 -0.0827
  164SOL    HW1  735   3.910   1.057  -0.018  0.6693 -0.6932  0.4107
  164SOL    HW2  736   3.786   1.039   0.068 -0.1254  1.4063 -0.2341
  165SOL     OW  737   5.177   2.057   2.023  0.1080  0.1913 -0.2085
  165SOL    HW1  738   5.090   2.019   2.019  0.2889 -0.1028 -2.0149
  165SOL    HW2  739   5.225   2.017   1.950  2.0704 -0.3718  1.3003
  166SOL     OW  740   4.774   2.512   0.566 -0.0895  0.0976  0.1333
  166SOL    HW1  741   4.802   2.443   0.626  0.6269 -0.4443 -0.8063
  166SOL    HW2  742   4.770   2.591   0.620 -0.8277 -0.6474  1.2051
  167SOL     OW  743   6.505   6.129   2.547 -0.1590  0.1330 -0.5802
  167SOL    HW1  744   6.516   6.111   2.640 -0.1617  0.7203 -0.4603
  167SOL    HW2  745   6.588   6.169   2.521 -0.1982  0.0663 -0.8062
  168SOL     OW  746   2.363   1.175   0.236 -0.2368 -0.5129 -0.0020
  168SOL    HW1  747   2.433   1.173   0.172  0.6699 -0.5219  0.9617
  168SOL    HW2  748   2.398   1.127   0.312 -1.7852 -1.7324  0.0026
  169SOL     OW  749   2.829   5.655   1.597 -0.0534 -0.5264 -0.2576
  169SOL    HW1  750   2.875   5.731   1.562  1.4060 -1.1990  0.1095
  169SOL    HW2  751   2.883   5.580   1.571 -1.0200 -1.3708  0.0842
  170SOL     OW  752   2.039   2.646   2.076  0.6065  0.3602 -0.2573
  170SOL    HW1  753   2.069   2.733   2.050  0.5046 -0.1232 -2.1364
  170SOL    HW2  754   1.946   2.657   2.096  0.8606  0.8936  0.6940
  171SOL     OW  755   5.812   1.378   1.628  0.4912  0.0559  0.9104
  171SOL    HW1  756   5.800   1.385   1.533 -2.3855 -2.0886  0.9775
  171SOL    HW2  757   5.906   1.385   1.641  0.9224  1.1105 -2.0097
  172SOL     OW  758   4.954   4.290   2.719  0.3031  0.3237  0.4757
  172SOL    HW1  759   5.035   4.311   2.766  0.9723 -1.9675  0.4701
  172SOL    HW2  760   4.980   4.282   2.628 -0.1373  0.4978  0.3319
  173SOL     OW  761   1.770   2.691   2.125  0.0972  0.2850  0.0948
  173SOL    HW1  762   1.721   2.611   2.141 -1.9783  1.8546  2.3233
  173SOL    HW2  763   1.728   2.731   2.049 -1.9222  1.3934  1.7148
  174SOL     OW  764   5.863   4.615   2.487 -0.0110  0.2527 -0.0133
  174SOL    HW1  765   5.823   4.605   2.401 -1.5538 -0.5748  0.7500
  174SOL    HW2  766   5.796   4.659   2.540  0.5702 -0.0255  0.9865
  175SOL     OW  767   2.798   5.456   1.968 -0.3522  0.1319  0.0376
  175SOL    HW1  768   2.867   5.516   1.939 -0.1547 -0.5164 -0.8845
  175SOL    HW2  769   2.840   5.370   1.972  0.0857  0.3653  3.9493
  176SOL     OW  770   5.979   6.220   2.288  0.1235  0.6891 -0.5612
  176SOL    HW1  771   6.019   6.191   2.370 -2.2469  2.4340  1.3867
  176SOL    HW2  772   5.964   6.139   2.239  0.8403 -0.5154  1.0988
  177SOL     OW  773   6.810   2.327   2.824  0.5414 -0.6741  0.2325
  177SOL    HW1  774   6.782   2.418   2.809  0.2489 -0.6174  1.1102
  177SOL    HW2  775   6.807   2.316   2.919 -1.4942 -2.2582  0.0463
  178SOL     OW  776   3.534   0.979   0.439  0.2600  0.2105  0.2529
  178SOL    HW1  777   3.571   0.968   0.352 -0.5322 -1.6364  0.1083
  178SOL    HW2  778   3.562   0.901   0.487 -1.8170 -0.3405  0.6824
  179SOL     OW  779   3.565   4.878   0.277 -0.3064 -0.0468 -0.0436
  179SOL    HW1  780   3.648   4.911   0.243 -0.3028 -1.1453 -1.1579
  179SOL    HW2  781   3.575   4.881   0.372  0.0842  2.0954 -0.1073
  180SOL     OW  782   1.873   4.525   0.196  0.2723 -0.0338  0.4416
  180SOL    HW1  783   1.800   4.463   0.185 -1.1221  1.2080  2.1966
  180SOL    HW2  784   1.831   4.611   0.201  1.9111  0.7679  1.1327
  181SOL     OW  785   2.103   1.200   1.374  0.0778 -0.2537  0.0684
  181SOL    HW1  786   2.144   1.115   1.386  0.2537 -0.3316 -1.0383
  181SOL    HW2  787   2.110   1.218   1.280  1.5261  1.7038  0.4711
  182SOL     OW  788   1.742   4.851   0.982  0.4305  0.3478 -0.4719
  182SOL    HW1  789   1.708   4.804   0.906  0.9017 -0.1518 -0.3724
  182SOL    HW2  790   1.837   4.845   0.974  0.4929 -0.7395  0.7880
  183SOL     OW  791   3.210   1.671   1.875 -0.5599 -0.1677  0.2487
  183SOL    HW1  792   3.155   1.655   1.798 -0.4309  0.2317  0.0659
  183SOL    HW2  793   3.148   1.684   1.947 -0.7781  1.6888 -0.2271
  184SOL     OW  794   3.765   4.299   0.315  0.5166  0.4631 -0.1372
  184SOL    HW1  795   3.787   4.357   0.242 -2.2101  0.7982 -0.7831
  184SOL    HW2  796   3.757   4.212   0.275  0.3592  0.4015  0.0283
  185SOL     OW  797   1.235   1.517   0.867  0.3542 -0.4322 -0.2061
  185SOL    HW1  798   1.233   1.476   0.781  1.8367 -0.4696 -0.2409
  185SOL    HW2  799   1.270   1.450   0.926  1.7681  0.3820 -0.0668
  186SOL     OW  800   4.333   5.340   2.295  0.3931 -0.6052 -0.4379
  186SOL    HW1  801   4.384   5.421   2.285  0.6092 -0.8134 -1.0414
  186SOL    HW2  802   4.348   5.292   2.214  2.3401 -2.4661  0.9509
  187SOL     OW  803   1.648   5.405   1.419  0.0720  0.1346 -0.0582
  187SOL    HW1  804   1.714   5.464   1.384  0.3269  0.4368  0.8862
  187SOL    HW2  805   1.647   5.330   1.360  0.3024  0.7338 -0.8289
  188SOL     OW  806   2.999   4.331   3.273  0.2786 -0.0795 -0.5551
  188SOL    HW1  807   3.048   4.266   3.324  0.8350 -0.3678 -1.4403
  188SOL    HW2  808   2.927   4.282   3.234 -1.7094  0.5962  1.9035
  189SOL     OW  809   3.089   0.522  -0.003 -0.0131  0.2992  0.0220
  189SOL    HW1  810   2.999   0.517   0.030  0.4154 -0.6550  1.1209
  189SOL    HW2  811   3.119   0.609   0.023 -0.7215  0.7700 -0.6804
  190SOL     OW  812   0.227   4.791   0.088  0.1707  0.5030  0.0648
  190SOL    HW1  813   0.159   4.803   0.154 -0.0145  0.4053 -0.1050
  190SOL    HW2  814   0.242   4.696   0.086 -0.0049  0.4791 -0.2077
  191SOL     OW  815   2.268   4.339   0.824  0.0691 -0.9819  0.6834
  191SOL    HW1  816   2.263   4.434   0.820  2.7160 -0.6808  2.0610
  191SOL    HW2  817   2.352   4.317   0.783 -1.2946 -2.9524 -1.2975
  192SOL     OW  818   3.448   3.155   0.709 -0.1199  0.2640  0.2163
  192SOL    HW1  819   3.475   3.064   0.723 -2.3341 -0.6658 -0.9904
  192SOL    HW2  820   3.512   3.191   0.648 -0.0284 -0.9711 -0.4400
  193SOL     OW  821   3.873   0.742   0.688 -0.6604 -0.0999  0.1492
  193SOL    HW1  822   3.860   0.669   0.749 -0.5002  0.2233  0.5763
  193SOL    HW2  823   3.785   0.774   0.670 -0.5999  1.0358  1.7410
  194SOL     OW  824   1.698   3.613   0.484 -0.7109 -0.3842  0.1152
  194SOL    HW1  825   1.691   3.524   0.451  1.1947 -1.0181  1.2671
  194SOL    HW2  826   1.685   3.605   0.578 -0.1632  0.4921  0.2777
  195SOL     OW  827   5.162   3.395   1.862  0.2254 -0.3588  0.4961
  195SOL    HW1  828   5.221   3.410   1.936 -0.3687  0.5236  0.8117
  195SOL    HW2  829   5.093   3.461   1.873 -1.8695 -2.5301  1.2008
  196SOL     OW  830   3.935   2.816   0.597 -0.3764 -0.3903  0.1182
  196SOL    HW1  831   3.962   2.737   0.644 -0.2447 -0.5263 -0.1838
  196SOL    HW2  832   3.944   2.886   0.661  2.5960 -0.1053 -0.4959
  197SOL     OW  833   2.995   1.320   0.317  0.4114 -0.2443  0.1572
  197SOL    HW1  834   3.081   1.287   0.289  0.4932  0.2515 -0.1849
  197SOL    HW2  835   2.974   1.268   0.394  1.1704 -0.1550  0.4363
  198SOL     OW  836   0.567   5.191   0.762 -0.1216  0.2196 -0.1597
  198SOL    HW1  837   0.542   5.240   0.840  0.5238  1.5688 -0.7578
  198SOL    HW2  838   0.642   5.139   0.790 -0.0072  0.5567  0.1714
  199SOL     OW  839   2.591   4.676   0.774  0.8847  0.4443 -0.3055
  199SOL    HW1  840   2.537   4.752   0.752 -1.1307 -0.5241  0.9713
  199SOL    HW2  841   2.662   4.712   0.827 -0.7870  1.3639  1.4395
  200SOL     OW  842   2.823   5.214   1.641 -0.1358 -0.6571  0.1619
  200SOL    HW1  843   2.827   5.130   1.688  0.7490 -0.8247 -0.1833
  200SOL    HW2  844   2.802   5.190   1.551  0.8945 -0.6015 -0.1124
  201SOL     OW  845   1.672   4.360   1.314  0.3899  0.2619 -0.5194
  201SOL    HW1  846   1.751   4.311   1.292 -0.1970 -0.3483 -1.3732
  201SOL    HW2  847   1.683   4.444   1.269  0.1641 -0.1677 -1.4117
  202SOL     OW  848   0.593   4.128   0.209  0.0952  0.4299 -0.1997
  202SOL    HW1  849   0.512   4.088   0.177  0.0664 -0.0187  0.4092
  202SOL    HW2  850   0.632   4.060   0.264  0.7430  0.7499 -0.2637
  203SOL     OW  851   4.652   2.976   1.105 -0.4757 -0.1952  0.0991
  203SOL    HW1  852   4.697   3.053   1.070  0.7330 -0.8895  0.0858
  203SOL    HW2  853   4.720   2.928   1.153 -1.3773 -0.8884  0.7270
  204SOL     OW  854   0.710   3.971   0.413  0.7723  0.3005 -0.9036
  204SOL    HW1  855   0.795   4.005   0.386  1.2714  0.1047  0.3608
  204SOL    HW2  856   0.686   4.024   0.489  0.7347 -0.9847  0.0037
  205SOL     OW  857   1.498   1.559   0.141 -0.4436  0.0201 -0.1149
  205SOL    HW1  858   1.547   1.604   0.072 -0.1796 -2.1429 -1.4614
  205SOL    HW2  859   1.561   1.547   0.212 -0.0144  0.2513 -0.4533
  206SOL     OW  860   3.572   5.995   2.772  0.9550 -0.4613  0.2241
  206SOL    HW1  861   3.478   5.978   2.783  0.2648  0.7140 -2.7014
  206SOL    HW2  862   3.602   6.022   2.859 -1.8599  0.8797  0.9069
  207SOL     OW  863   3.677   6.166   2.073  0.4102 -0.3675  0.4731
  207SOL    HW1  864   3.614   6.095   2.086  1.6950 -1.8644 -0.9677
  207SOL    HW2  865   3.761   6.129   2.102  1.0065  0.7564  0.2148
  208SOL     OW  866   5.341   4.151   2.917  0.4829  0.0813 -0.4406
  208SOL    HW1  867   5.394   4.158   2.996  1.4957  0.1402 -1.0990
  208SOL    HW2  868   5.308   4.240   2.903  2.7160  0.8294 -1.6487
  209SOL     OW  869   2.349   3.860   3.061 -0.7720  0.2223  0.0513
  209SOL    HW1  870   2.278   3.798   3.044 -2.0067  1.6574 -0.1524
  209SOL    HW2  871   2.309   3.946   3.051  1.3178  1.0851 -1.4503
  210SOL     OW  872   2.131   4.012   0.554 -0.3429 -0.0484  0.2736
  210SOL    HW1  873   2.083   4.093   0.541 -0.1855 -0.0561 -0.3940
  210SOL    HW2  874   2.185   4.003   0.475  2.1980  0.9339  1.7536
  211SOL     OW  875   4.745   5.643   2.352  0.1805 -0.2667 -0.2254
  211SOL    HW1  876   4.745   5.565   2.407  2.5283  0.2503  0.6340
  211SOL    HW2  877   4.781   5.613   2.268  2.0796  0.0250  0.4368
  212SOL     OW  878   5.082   3.471   0.889  0.1242 -0.4068  0.0003
  212SOL    HW1  879   5.025   3.444   0.961  0.3863  0.3873  0.5144
  212SOL    HW2  880   5.085   3.566   0.895  1.0291 -0.4015 -0.3931
  213SOL     OW  881   3.320   2.959   3.102 -0.3048 -0.1507 -0.0651
  213SOL    HW1  882   3.368   2.903   3.163 -0.4810 -1.2848 -0.9366
  213SOL    HW2  883   3.295   2.901   3.030 -1.3956  0.8251 -0.5109
  214SOL     OW  884   5.322   5.010   3.337 -0.5437  0.3721  0.5061
  214SOL    HW1  885   5.318   4.968   3.423  0.3657  2.3059  1.5525
  214SOL    HW2  886   5.380   5.086   3.350 -4.1289  3.6111 -0.4630
  215SOL     OW  887   1.959   2.454   1.460 -0.2339  0.7295 -0.2510
  215SOL    HW1  888   2.003   2.516   1.401 -0.3914  2.0696  0.9955
  215SOL    HW2  889   1.882   2.501   1.491 -1.0254 -0.5569 -0.1953
  216SOL     OW  890   5.835   3.331   2.648  0.3773 -0.1440  0.4279
  216SOL    HW1  891   5.860   3.416   2.685  0.8032 -0.9537  2.0858
  216SOL    HW2  892   5.770   3.297   2.710 -0.2478 -0.7736 -0.5505
  217SOL     OW  893   5.567   3.760   3.102 -0.4772 -0.2225 -0.3390
  217SOL    HW1  894   5.621   3.748   3.180 -0.8422 -0.9511 -0.1896
  217SOL    HW2  895   5.477   3.766   3.135 -0.7589 -1.6491 -0.7626
  218SOL     OW  896   5.011   1.863   1.569 -0.2548  0.0643 -0.5032
  218SOL    HW1  897   5.027   1.774   1.539  1.1920  0.8179 -2.1463
  218SOL    HW2  898   5.098   1.900   1.582 -0.8084  1.5156 -0.7723
  219SOL     OW  899   3.603   5.639   2.441  0.3685  0.2238  0.2601
  219SOL    HW1  900   3.650   5.696   2.502  0.9824  0.8747 -0.7962
  219SOL    HW2  901   3.670   5.605   2.383 -0.4035  1.0138 -1.1576
  220SOL     OW  902   4.320   1.677   0.845  0.3706 -0.5746  0.0481
  220SOL    HW1  903   4.383   1.720   0.788 -0.9093 -0.7737 -1.5777
  220SOL    HW2  904   4.366   1.599   0.877  1.1861 -0.3427 -0.5276
  221SOL     OW  905   4.895   4.287   2.227 -0.1639  0.0472  0.3143
  221SOL    HW1  906   4.889   4.192   2.238 -2.1970  0.1935  0.8500
  221SOL    HW2  907   4.852   4.304   2.143 -1.3481  0.6445  1.0345
  222SOL     OW  908   2.679   2.374   1.025 -0.7538  0.3316  0.0638
  222SOL    HW1  909   2.645   2.295   1.066  1.6824 -0.3351  0.9927
  222SOL    HW2  910   2.665   2.443   1.090  0.9239 -0.2501  1.1225
  223SOL     OW  911   2.993   1.016   0.110  0.3178  0.3261  0.1141
  223SOL    HW1  912   3.041   1.060   0.179  0.0829 -0.3893  0.7507
  223SOL    HW2  913   2.960   1.086   0.055 -0.3766  0.9820  1.3206
  224SOL     OW  914   2.312   3.042   1.249 -0.0665  0.3104 -0.2653
  224SOL    HW1  915   2.296   3.125   1.293 -0.6017  0.5531 -0.8886
  224SOL    HW2  916   2.314   2.977   1.320  0.1325  0.8227  0.2031
  225SOL     OW  917   2.948   0.804   0.732 -1.0071 -0.0991 -0.2380
  225SOL    HW1  918   2.926   0.714   0.710  1.1737 -0.3223 -1.8869
  225SOL    HW2  919   3.014   0.829   0.667 -2.0081  2.9251 -0.2501
  226SOL     OW  920   2.934   2.882   3.083  0.4156 -0.0977 -0.1536
  226SOL    HW1  921   2.859   2.840   3.125  0.6355 -0.6536 -0.3098
  226SOL    HW2  922   2.986   2.915   3.156  0.2973 -0.1960 -0.0230
  227SOL     OW  923   3.261   3.057   1.293  0.3551  0.0819 -0.4108
  227SOL    HW1  924   3.292   2.968   1.307  3.0778  1.1488  1.1017
  227SOL    HW2  925   3.284   3.077   1.202  0.6403 -0.4463 -0.4557
  228SOL     OW  926   3.965   1.371   1.272 -0.1971  0.2383 -0.0119
  228SOL    HW1  927   3.904   1.367   1.346  0.6704  2.0609  0.8739
  228SOL    HW2  928   4.048   1.398   1.311  0.2902  1.2558 -1.6487
  229SOL     OW  929   0.983   3.834   1.089 -0.5730 -0.1095 -0.2356
  229SOL    HW1  930   0.996   3.911   1.034  0.1235 -0.0427  0.0149
  229SOL    HW2  931   1.071   3.808   1.117 -0.9390  0.2494  1.3910
  230SOL     OW  932   6.026   6.112   2.647 -0.5213 -0.2270 -0.2853
  230SOL    HW1  933   5.934   6.105   2.621 -0.1708 -1.5349 -1.2785
  230SOL    HW2  934   6.034   6.200   2.684 -2.6477 -0.7724  1.7456
  231SOL     OW  935   4.536   2.695   2.160 -0.3751 -0.0999 -0.4017
  231SOL    HW1  936   4.500   2.783   2.146  1.2946  0.7604  0.3703
  231SOL    HW2  937   4.482   2.638   2.106 -0.9009  1.5346 -1.6943
  232SOL     OW  938   4.098   4.143   1.292  0.4435 -0.0119  0.4558
  232SOL    HW1  939   4.035   4.082   1.254 -0.2917  2.0232 -1.8209
  232SOL    HW2  940   4.169   4.087   1.324  0.3330 -2.0447 -2.4680
  233SOL     OW  941   1.643   3.555   0.744 -0.2097  0.3192  0.3825
  233SOL    HW1  942   1.622   3.489   0.811  0.9048  0.4929  0.9164
  233SOL    HW2  943   1.651   3.637   0.793  2.7948  0.0936  0.4453
  234SOL     OW  944   5.588   4.956   1.943 -0.4105 -0.0704 -0.0597
  234SOL    HW1  945   5.628   4.909   1.870 -0.0394 -0.6530  0.5209
  234SOL    HW2  946   5.606   4.903   2.020 -0.7975  0.5434  0.4680
  235SOL     OW  947   0.483   3.870   0.187 -0.1627  0.0344 -0.4450
  235SOL    HW1  948   0.563   3.830   0.222  0.9513  2.3400 -0.1668
  235SOL    HW2  949   0.437   3.798   0.144  1.8190 -1.4714 -0.1899
  236SOL     OW  950   5.970   4.304   2.138  0.3028  0.1608  0.0603
  236SOL    HW1  951   5.957   4.397   2.116 -1.6903 -0.6562 -2.8519
  236SOL    HW2  952   6.031   4.272   2.072  0.6043 -0.7454  0.7557
  237SOL     OW  953   2.603   2.450   2.134 -0.0457  0.2570  0.2194
  237SOL    HW1  954   2.541   2.376   2.135 -0.1578  0.3542  0.3707
  237SOL    HW2  955   2.551   2.525   2.160  0.3867  0.1480  1.4284
  238SOL     OW  956   5.848   4.037   2.566 -0.3320 -0.0026 -0.3842
  238SOL    HW1  957   5.821   3.978   2.637  1.1780  0.1558  0.3634
  238SOL    HW2  958   5.871   4.118   2.610  0.7807  0.0514 -1.0311
  239SOL     OW  959   4.483   4.792   1.860  0.5480 -0.0935 -0.4086
  239SOL    HW1  960   4.433   4.870   1.885  2.1705  0.7687  0.2657
  239SOL    HW2  961   4.417   4.723   1.850 -0.6768  0.7160  1.5527
  240SOL     OW  962   1.718   4.774   0.194 -0.9477 -0.0311  0.0807
  240SOL    HW1  963   1.622   4.772   0.193 -0.9338 -1.0758 -0.1589
  240SOL    HW2  964   1.743   4.758   0.103 -0.5429  2.2460 -0.2670
  241SOL     OW  965   3.150   4.223   0.351  0.5971 -0.3301 -0.0943
  241SOL    HW1  966   3.110   4.175   0.278  0.7999  0.5188 -0.7760
  241SOL    HW2  967   3.096   4.302   0.360  0.8708 -0.1923  0.3602
  242SOL     OW  968   5.347   4.972   1.122 -0.4384  0.2309  0.1035
  242SOL    HW1  969   5.374   5.064   1.114  0.1319  0.0190 -0.5197
  242SOL    HW2  970   5.426   4.922   1.104 -1.5581 -0.4758 -4.0744
  243SOL     OW  971   5.688   2.515   3.007 -0.8727 -0.0014 -0.1727
  243SOL    HW1  972   5.741   2.559   3.073  0.3442  1.1535 -1.8468
  243SOL    HW2  973   5.625   2.581   2.978  1.4079  1.0822 -3.1935
  244SOL     OW  974   6.405   4.638   2.609 -0.0353  0.2898  0.0255
  244SOL    HW1  975   6.314   4.654   2.582 -0.4040 -0.1381  0.9738
  244SOL    HW2  976   6.452   4.627   2.527 -1.4413 -2.7009 -0.5223
  245SOL     OW  977   6.581   4.419   3.119 -0.3047  0.0064  0.0583
  245SOL    HW1  978   6.548   4.476   3.189  0.5539  0.4374  0.1357
  245SOL    HW2  979   6.540   4.452   3.039 -0.2537  0.3888  0.1838
  246SOL     OW  980   1.632   3.006   0.397  0.0767 -0.1151  0.3754
  246SOL    HW1  981   1.566   2.941   0.422 -0.1531  0.1453  0.4424
  246SOL    HW2  982   1.661   3.044   0.479 -1.2626  1.3203  0.2382
  247SOL     OW  983   4.675   1.395   0.594 -0.0602  0.9745  0.3465
  247SOL    HW1  984   4.616   1.415   0.522  0.7235  1.9584 -0.0555
  247SOL    HW2  985   4.741   1.465   0.591  1.4531 -0.3926  0.4256
  248SOL     OW  986   1.743   0.897   0.324 -0.2767 -0.0040  0.0136
  248SOL    HW1  987   1.711   0.914   0.236 -1.4184 -1.5088  0.0993
  248SOL    HW2  988   1.718   0.806   0.342  0.1317  0.1913  1.7968
  249SOL     OW  989   6.000   1.452   1.825 -0.2137  0.6121  0.5641
  249SOL    HW1  990   6.070   1.427   1.764 -1.7980  0.0509 -1.0988
  249SOL    HW2  991   6.012   1.546   1.836  0.2972  0.6765 -0.3835
  250SOL     OW  992   1.729   2.925   1.694 -0.4506 -0.2401 -0.1592
  250SOL    HW1  993   1.717   2.969   1.610 -0.6355  0.5793  0.2849
  250SOL    HW2  994   1.713   2.994   1.759 -2.0231 -1.2345  0.5815
  251SOL     OW  995   4.544   1.550   2.032  0.3478  0.1274  0.0513
  251SOL    HW1  996   4.632   1.561   2.070  1.4274  2.7444 -2.8142
  251SOL    HW2  997   4.536   1.455   2.019  3.9143 -0.0864 -1.8820
  252SOL     OW  998   4.365   4.579   0.782 -0.5022 -0.4221  0.7511
  252SOL    HW1  999   4.289   4.578   0.839  0.5565 -0.5146  2.2260
  252SOL    HW2 1000   4.420   4.649   0.816  0.1907 -0.5179 -0.1308
  253SOL     OW 1001   4.757   4.010   2.963 -0.2247 -0.0632 -0.0848
  253SOL    HW1 1002   4.738   4.078   2.899  1.5013  0.1233 -0.4661
  253SOL    HW2 1003   4.851   4.018   2.979 -0.0659 -2.0047  0.2497
  254SOL     OW 1004   6.377   2.815   2.464  0.5576  0.2151  0.6981
  254SOL    HW1 1005   6.317   2.741   2.460 -0.8806  1.3892  0.0634
  254SOL    HW2 1006   6.453   2.787   2.413 -1.2073  0.2515 -2.1299
  255SOL     OW 1007   1.306   1.257   1.008  0.1837 -0.2961  0.2589
  255SOL    HW1 1008   1.229   1.200   1.005  0.7186 -0.9999 -0.1874
  255SOL    HW2 1009   1.378   1.199   1.032  0.4132  0.5447  1.7178
  256SOL     OW 1010   6.087   5.838   2.038 -0.2791  0.0028  0.3547
  256SOL    HW1 1011   6.003   5.862   2.076 -0.3470 -0.4041  0.4743
  256SOL    HW2 1012   6.148   5.904   2.070 -0.3323 -0.3348  1.1886
  257SOL     OW 1013   4.486   3.539   1.928 -0.1748 -0.1771  0.2947
  257SOL    HW1 1014   4.409   3.588   1.898  0.9405  0.1183 -2.3506
  257SOL    HW2 1015   4.557   3.568   1.871  1.3391 -2.2826  0.9776
  258SOL     OW 1016   4.610   4.411   2.495  0.5947 -0.9755 -0.1350
  258SOL    HW1 1017   4.607   4.432   2.588 -0.7063 -0.0458 -0.3588
  258SOL    HW2 1018   4.519   4.413   2.467  1.0674  0.3253 -1.7455
  259SOL     OW 1019   2.792   3.466   0.467  0.2098  0.2338  0.4819
  259SOL    HW1 1020   2.863   3.529   0.474  0.2893  0.1801  0.1546
  259SOL    HW2 1021   2.834   3.382   0.487 -0.1053  0.3945  1.9792
  260SOL     OW 1022   4.743   4.268   2.874 -0.0614  0.2838 -0.1569
  260SOL    HW1 1023   4.683   4.324   2.825  0.6292  0.0251 -1.3306
  260SOL    HW2 1024   4.824   4.269   2.824  0.2639 -1.0204  0.2881
  261SOL     OW 1025   3.769   5.861   3.276 -0.5990 -0.4179  0.2095
  261SOL    HW1 1026   3.749   5.791   3.339 -1.6204 -0.5247 -0.2144
  261SOL    HW2 1027   3.698   5.924   3.288 -0.8375 -0.4704 -0.8665
  262SOL     OW 1028   1.889   4.055   2.612  0.4564  0.6289  0.0939
  262SOL    HW1 1029   1.806   4.008   2.620 -0.3027  1.6655 -1.3724
  262SOL    HW2 1030   1.956   3.986   2.618 -0.5268 -0.3479  0.2003
  263SOL     OW 1031   0.986   4.809   0.874  0.0602  0.1976  0.5817
  263SOL    HW1 1032   1.006   4.721   0.905  1.7605  0.1458 -0.4992
  263SOL    HW2 1033   1.072   4.851   0.867 -0.3970  0.8918 -1.9125
  264SOL     OW 1034   3.540   1.285   0.524 -0.2645  0.2660  0.2698
  264SOL    HW1 1035   3.573   1.305   0.436  1.6607  0.9086  1.0917
  264SOL    HW2 1036   3.537   1.190   0.527 -0.7751  0.2429 -0.6343
  265SOL     OW 1037   4.790   4.593   1.611  0.3898  0.9746  0.4126
  265SOL    HW1 1038   4.875   4.630   1.587  0.4666  1.1566  0.9447
  265SOL    HW2 1039   4.806   4.550   1.695  0.4562 -0.8610 -0.5000
  266SOL     OW 1040   3.527   0.913   0.958  0.0146  0.4228 -0.7683
  266SOL    HW1 1041   3.515   0.825   0.994 -0.2729  0.9147  0.4088
  266SOL    HW2 1042   3.594   0.952   1.014  2.2535  0.0357 -3.0140
  267SOL     OW 1043   2.532   2.133   1.119 -0.4317 -0.1555 -0.4728
  267SOL    HW1 1044   2.463   2.161   1.179 -0.1959 -0.0805 -0.2391
  267SOL    HW2 1045   2.605   2.108   1.176 -1.2369 -2.9767 -0.5335
  268SOL     OW 1046   1.239   2.145   0.136  0.3405 -0.1853 -0.0146
  268SOL    HW1 1047   1.325   2.186   0.125 -0.2884  0.8137 -1.8095
  268SOL    HW2 1048   1.177   2.217   0.121 -0.8022 -1.0658  0.3617
  269SOL     OW 1049   4.243   5.850   2.843  0.1541  0.5926  0.3805
  269SOL    HW1 1050   4.305   5.844   2.770 -0.7313  3.3511 -0.7087
  269SOL    HW2 1051   4.292   5.890   2.914  0.0138  1.4874 -0.0180
  270SOL     OW 1052   4.124   2.358   2.491  0.0480 -0.7190 -0.3125
  270SOL    HW1 1053   4.062   2.390   2.426 -1.8902 -0.8825  1.3788
  270SOL    HW2 1054   4.086   2.277   2.524  1.3542 -1.0289  0.5323
  271SOL     OW 1055   2.565   1.945   0.651 -0.4897  0.4171  0.0973
  271SOL    HW1 1056   2.615   1.920   0.729 -0.9166 -1.4618 -0.1744
  271SOL    HW2 1057   2.630   1.978   0.590 -0.0597  1.2564  0.9887
  272SOL     OW 1058   4.243   5.618   1.852  0.7104 -0.1418  0.0176
  272SOL    HW1 1059   4.315   5.571   1.894 -0.0918 -1.9136 -0.5173
  272SOL    HW2 1060   4.207   5.556   1.789  0.4587  1.6892 -1.7136
  273SOL     OW 1061   5.438   3.447   2.411 -0.1776  0.7574  0.2895
  273SOL    HW1 1062   5.484   3.452   2.494 -1.9738 -1.7368  1.5338
  273SOL    HW2 1063   5.367   3.511   2.419 -0.7121  0.0983  0.9611
  274SOL     OW 1064   2.001   4.525   1.437 -0.1377 -0.2982 -0.5092
  274SOL    HW1 1065   1.938   4.594   1.458  1.3515  0.5462  1.5569
  274SOL    HW2 1066   1.965   4.447   1.480  0.2277  0.2023  0.7506
  275SOL     OW 1067   1.566   5.172   1.794  0.3725 -0.2732 -0.6141
  275SOL    HW1 1068   1.473   5.195   1.789  0.6949  1.0550 -1.1017
  275SOL    HW2 1069   1.589   5.186   1.886  0.3248  0.4802 -0.7055
  276SOL     OW 1070   2.557   4.385   0.926 -0.4448 -0.3581  0.4712
  276SOL    HW1 1071   2.600   4.470   0.914  1.2241 -1.0270  1.3956
  276SOL    HW2 1072   2.598   4.328   0.862  0.5599 -1.1579  1.7665
  277SOL     OW 1073   5.384   4.579   1.112 -0.1193  0.0206 -0.9548
  277SOL    HW1 1074   5.393   4.493   1.070 -0.5241 -0.2455 -0.5069
  277SOL    HW2 1075   5.295   4.607   1.092 -0.6768 -0.5713  0.5555
  278SOL     OW 1076   2.190   3.763   1.138  0.0084 -0.2436 -0.1047
  278SOL    HW1 1077   2.220   3.851   1.159 -1.1677 -0.0673  1.0054
  278SOL    HW2 1078   2.160   3.768   1.048 -0.2653  0.5704  0.0222
  279SOL     OW 1079   5.120   4.305   1.065 -0.5093 -0.6397 -0.0063
  279SOL    HW1 1080   5.113   4.290   0.971 -0.0514 -2.3230  0.1975
  279SOL    HW2 1081   5.195   4.252   1.092  0.5419  1.2618  1.0271
  280SOL     OW 1082   4.474   3.621   3.197 -0.4746 -0.8098  0.3486
  280SOL    HW1 1083   4.403   3.677   3.165  0.1140  0.0604  0.5333
  280SOL    HW2 1084   4.453   3.535   3.162 -1.8607 -0.6704  0.7706
  281SOL     OW 1085   5.110   2.114   0.917  0.1357  0.3711  0.3830
  281SOL    HW1 1086   5.050   2.099   0.990  0.6711 -0.4506  0.6785
  281SOL    HW2 1087   5.133   2.206   0.923  0.1427  0.3243  1.2353
  282SOL     OW 1088   3.527   5.368   2.422  0.5865 -0.3196 -0.2997
  282SOL    HW1 1089   3.563   5.456   2.426 -0.6951  0.2556 -0.6932
  282SOL    HW2 1090   3.544   5.330   2.508  0.0639  0.7698  0.3007
  283SOL     OW 1091   3.943   2.524   2.333 -0.0724  0.0965 -0.0848
  283SOL    HW1 1092   3.993   2.583   2.388 -0.7722 -0.3999  1.1137
  283SOL    HW2 1093   3.859   2.569   2.319  0.0684  0.1825 -0.6862
  284SOL     OW 1094   5.044   4.668   0.382 -0.3549 -0.4272 -0.0483
  284SOL    HW1 1095   5.032   4.623   0.298 -1.9956 -0.1837  0.0245
  284SOL    HW2 1096   4.956   4.694   0.408  0.0026 -1.1899  2.1562
  285SOL     OW 1097   3.758   4.867   3.150 -0.1337 -0.2841 -0.6135
  285SOL    HW1 1098   3.784   4.916   3.071  0.8255  0.1183 -0.0619
  285SOL    HW2 1099   3.680   4.913   3.181  0.7107  0.8898 -0.1464
  286SOL     OW 1100   2.869   3.086   0.780 -0.6586 -0.6037  0.0481
  286SOL    HW1 1101   2.913   3.007   0.812  1.6324  0.6888  0.2488
  286SOL    HW2 1102   2.776   3.069   0.797 -0.2902 -3.3708 -0.2299
  287SOL     OW 1103   4.719   5.416   2.499 -0.4897  0.5125  0.2456
  287SOL    HW1 1104   4.785   5.358   2.538 -0.3000  0.8319  0.4063
  287SOL    HW2 1105   4.684   5.366   2.426  0.9184  0.8575 -0.7137
  288SOL     OW 1106   1.905   4.385   2.023  0.2220  1.0812 -0.0327
  288SOL    HW1 1107   1.869   4.463   2.067  0.7326  1.3388 -0.0539
  288SOL    HW2 1108   1.832   4.349   1.973 -0.2996  0.9514  0.7944
  289SOL     OW 1109   5.846   2.374   2.829 -0.0522  0.2790  0.2069
  289SOL    HW1 1110   5.802   2.426   2.897  2.5585  1.1770  1.3417
  289SOL    HW2 1111   5.839   2.428   2.750  0.2337  1.1012  0.7206
  290SOL     OW 1112   2.303   4.179   0.209  0.3002 -0.1977 -0.2153
  290SOL    HW1 1113   2.316   4.215   0.121 -0.8410 -0.7420 -0.6241
  290SOL    HW2 1114   2.368   4.109   0.217  0.5758  0.0204 -0.5215
  291SOL     OW 1115   3.185   4.908   0.515 -0.5370 -0.1757  0.1167
  291SOL    HW1 1116   3.141   4.987   0.546  1.0187  0.4700  0.8040
  291SOL    HW2 1117   3.253   4.939   0.455  0.2654 -0.9430  0.5870
  292SOL     OW 1118   5.449   2.397   2.726  0.0057 -0.4277  0.4978
  292SOL    HW1 1119   5.511   2.385   2.654 -0.2815  1.2203 -0.0532
  292SOL    HW2 1120   5.367   2.358   2.694 -0.2743  0.7719 -0.3317
  293SOL     OW 1121   4.647   4.987   1.554 -0.2312  0.4368  0.4881
  293SOL    HW1 1122   4.742   4.996   1.558 -0.2543  1.6580 -0.8944
  293SOL    HW2 1123   4.633   4.892   1.547  0.7936  0.1510  1.7308
  294SOL     OW 1124   3.493   2.702   1.479  0.1362  0.0170  0.6520
  294SOL    HW1 1125   3.442   2.632   1.518 -0.8748  0.4468  0.1523
  294SOL    HW2 1126   3.565   2.658   1.434  0.0926 -0.6159  1.1990
  295SOL     OW 1127   6.191   4.962   2.831  0.2076  0.5050  0.1865
  295SOL    HW1 1128   6.136   4.962   2.754 -0.2714 -1.0854  0.4829
  295SOL    HW2 1129   6.199   5.054   2.856  0.2352  1.0270 -1.6265
  296SOL     OW 1130   2.453   0.440   0.175 -0.1326 -0.0697 -0.3574
  296SOL    HW1 1131   2.450   0.345   0.185 -1.1482 -0.0859 -0.7092
  296SOL    HW2 1132   2.429   0.455   0.083 -1.3568  0.5852  0.0448
  297SOL     OW 1133   1.677   2.472   1.744  1.0475  0.0016 -0.0187
  297SOL    HW1 1134   1.747   2.408   1.727  0.6759 -0.0381 -1.4855
  297SOL    HW2 1135   1.706   2.552   1.699  0.2149  0.0174 -0.5522
  298SOL     OW 1136   4.679   3.952   0.058 -0.2571  0.0346 -1.2996
  298SOL    HW1 1137   4.646   3.865   0.033 -0.2677 -0.2590 -0.3302
  298SOL    HW2 1138   4.703   3.942   0.151  0.3718  0.8848 -1.3580
  299SOL     OW 1139   5.175   3.122   2.630  0.0737 -0.1204  0.3737
  299SOL    HW1 1140   5.095   3.120   2.683 -2.2072  0.5831 -2.7417
  299SOL    HW2 1141   5.200   3.030   2.621 -1.5178 -0.5406 -0.0753
  300SOL     OW 1142   4.569   2.234   0.581 -0.0639  0.2625 -0.4524
  300SOL    HW1 1143   4.555   2.327   0.596  0.8193  0.5201 -1.1575
  300SOL    HW2 1144   4.486   2.204   0.544 -0.3664  0.7608 -0.1908
  301SOL     OW 1145   2.912   6.365   2.885  0.2755  0.4337 -0.1969
  301SOL    HW1 1146   2.847   6.432   2.903  0.5684  1.0389 -1.2902
  301SOL    HW2 1147   2.988   6.413   2.852  1.8155 -0.1165  2.2592
  302SOL     OW 1148   0.499   3.066   0.196  0.3523 -0.3014  0.0499
  302SOL    HW1 1149   0.417   3.017   0.189  0.0485  0.1535  0.3926
  302SOL    HW2 1150   0.507   3.087   0.289  1.4612 -1.3610  0.2198
  303SOL     OW 1151   3.155   3.193   3.163 -0.0850 -1.3064 -0.2541
  303SOL    HW1 1152   3.187   3.105   3.144  2.0151 -0.7303  0.3357
  303SOL    HW2 1153   3.208   3.221   3.238  1.6999  1.6797 -2.4255
  304SOL     OW 1154   4.903   2.739   0.250  0.0280 -0.1277 -0.0953
  304SOL    HW1 1155   4.892   2.671   0.185 -0.6979  0.2701 -0.4057
  304SOL    HW2 1156   4.816   2.749   0.289 -0.0742  1.1438 -0.5926
  305SOL     OW 1157   1.923   3.291   2.045 -0.2310  0.0391  0.0688
  305SOL    HW1 1158   1.938   3.371   2.096  0.8082 -0.7791  1.1152
  305SOL    HW2 1159   1.990   3.293   1.977 -0.7242  0.4402 -0.4164
  306SOL     OW 1160   0.828   2.012   0.173  0.1989  0.0850 -0.9516
  306SOL    HW1 1161   0.735   2.017   0.195 -0.1240 -0.0419 -2.2472
  306SOL    HW2 1162   0.867   1.963   0.246 -1.4104 -3.4091 -2.2058
  307SOL     OW 1163   4.154   4.137   2.643 -0.0486  0.1940 -0.2464
  307SOL    HW1 1164   4.248   4.134   2.662  0.0304  0.8254 -0.4999
  307SOL    HW2 1165   4.149   4.155   2.549 -0.4255 -0.1524 -0.2959
  308SOL     OW 1166   6.678   3.316   3.253 -0.3049 -0.5387  0.4393
  308SOL    HW1 1167   6.583   3.308   3.257 -0.3101 -1.5485 -1.0047
  308SOL    HW2 1168   6.699   3.309   3.159  1.3355 -2.2966  0.8711
  309SOL     OW 1169   2.963   0.865   1.172 -0.2600 -0.3564 -0.6910
  309SOL    HW1 1170   2.909   0.940   1.195 -0.5003 -1.5193  3.2282
  309SOL    HW2 1171   2.906   0.809   1.121 -1.1934  0.5547 -0.6825
  310SOL     OW 1172   4.255   4.917   2.502  0.8679 -0.3778  0.4517
  310SOL    HW1 1173   4.239   4.912   2.597  0.7647  1.0135  0.5334
  310SOL    HW2 1174   4.304   4.838   2.482 -0.4835 -1.4986  1.3813
  311SOL     OW 1175   2.113   5.744   2.197  0.2592 -0.1135  0.3253
  311SOL    HW1 1176   2.183   5.721   2.135  0.0195  0.6557 -0.2470
  311SOL    HW2 1177   2.067   5.661   2.212  0.6187 -0.4081 -0.1545
  312SOL     OW 1178   0.604   2.017   0.575  0.6934 -0.2154  0.7004
  312SOL    HW1 1179   0.553   1.975   0.644  0.3440  0.7557  1.0527
  312SOL    HW2 1180   0.693   1.984   0.587  0.4854 -0.6278  1.1375
  313SOL     OW 1181   1.690   0.867   1.118  0.3774  0.6675  0.1678
  313SOL    HW1 1182   1.709   0.913   1.200  1.8544  1.4757 -0.6022
  313SOL    HW2 1183   1.630   0.925   1.071 -0.5054  0.1843  0.6499
  314SOL     OW 1184   1.700   2.451   2.232 -0.2526 -0.1059  0.6185
  314SOL    HW1 1185   1.662   2.443   2.320  1.1719 -0.5702  1.2148
  314SOL    HW2 1186   1.769   2.385   2.229  0.1272  0.3167 -0.6429
  315SOL     OW 1187   2.304   4.135   3.010  0.1482  0.2664  0.1407
  315SOL    HW1 1188   2.231   4.140   3.072 -0.1423 -1.6085  0.0262
  315SOL    HW2 1189   2.264   4.151   2.924  0.1367  0.6424  0.2156
  316SOL     OW 1190   6.403   5.837   2.800  0.4587  0.4286  0.8666
  316SOL    HW1 1191   6.454   5.917   2.814 -0.3289  0.6980  2.3977
  316SOL    HW2 1192   6.469   5.771   2.777  1.4432  0.9290  2.1393
  317SOL     OW 1193   1.521   3.173   1.739 -0.6180  0.1275  0.0972
  317SOL    HW1 1194   1.431   3.183   1.771 -0.3326  0.0104  0.9406
  317SOL    HW2 1195   1.575   3.213   1.807  0.0831 -1.2389  0.3601
  318SOL     OW 1196   3.940   3.207   3.217  0.4753 -0.1860  0.1396
  318SOL    HW1 1197   3.933   3.131   3.158  2.0285 -0.7548  0.6483
  318SOL    HW2 1198   3.849   3.230   3.236 -0.0446 -0.9520 -1.2508
  319SOL     OW 1199   2.813   4.667   2.931  0.5586  0.0530  0.0949
  319SOL    HW1 1200   2.806   4.572   2.924  2.0812 -0.0462 -0.3442
  319SOL    HW2 1201   2.729   4.694   2.968  0.0577 -1.4449  0.1221
  320SOL     OW 1202   3.883   1.065   1.142  0.1249  0.7698 -0.2012
  320SOL    HW1 1203   3.924   1.147   1.114 -2.0721  1.2992 -2.1285
  320SOL    HW2 1204   3.889   1.008   1.065 -0.7343  0.0661  0.2375
  321SOL     OW 1205   2.170   5.032   2.093 -0.2994  0.4185 -1.1357
  321SOL    HW1 1206   2.126   4.971   2.034  0.6389 -0.8188 -0.6146
  321SOL    HW2 1207   2.102   5.061   2.153 -0.1976 -3.0225  0.9536
  322SOL     OW 1208   2.575   2.265   0.708  0.2420 -0.5718  0.1669
  322SOL    HW1 1209   2.644   2.269   0.774  0.6076 -0.0910 -0.2361
  322SOL    HW2 1210   2.581   2.177   0.672  1.3062 -0.2125 -0.5582
  323SOL     OW 1211   3.518   3.952   2.536 -0.1068  0.1479  0.1071
  323SOL    HW1 1212   3.530   3.866   2.496 -2.8290  0.0574 -0.7571
  323SOL    HW2 1213   3.532   3.938   2.629  2.6610 -0.4786 -0.3389
  324SOL     OW 1214   3.886   1.766   0.910 -0.3696  0.4939 -0.4684
  324SOL    HW1 1215   3.864   1.841   0.964  1.2517 -0.1363  1.1765
  324SOL    HW2 1216   3.807   1.749   0.859 -0.8798  3.1079 -0.7096
  325SOL     OW 1217   3.746   3.651   0.579 -0.5389 -0.0610  0.8238
  325SOL    HW1 1218   3.760   3.741   0.609 -2.4704  0.0887  1.3893
  325SOL    HW2 1219   3.653   3.635   0.593 -0.0931 -2.4330  1.5103
  326SOL     OW 1220   6.529   5.225   2.567  0.5952  0.4840 -0.7248
  326SOL    HW1 1221   6.583   5.169   2.624  0.0711  1.4070  0.7346
  326SOL    HW2 1222   6.553   5.314   2.591 -1.1483  0.9112 -0.4420
  327SOL     OW 1223   4.841   2.383   0.337 -0.1269  0.1664 -0.0878
  327SOL    HW1 1224   4.873   2.306   0.383  0.3251 -0.4172 -1.3299
  327SOL    HW2 1225   4.829   2.449   0.406 -0.0592 -0.8508  0.9260
  328SOL     OW 1226   4.498   5.824   2.732 -0.5309 -0.3264  0.0861
  328SOL    HW1 1227   4.565   5.855   2.793 -1.1566  0.1967  0.5194
  328SOL    HW2 1228   4.528   5.737   2.706  0.5813  0.0994 -0.1305
  329SOL     OW 1229   4.698   3.739   2.924 -0.4117 -0.9812  0.1902
  329SOL    HW1 1230   4.714   3.735   3.019 -3.0928 -0.7492  0.7351
  329SOL    HW2 1231   4.719   3.829   2.900  0.5558 -1.1157  0.4712
  330SOL     OW 1232   6.182   4.168   3.046 -1.1881 -0.6340  0.1633
  330SOL    HW1 1233   6.168   4.172   3.140 -0.4795  0.7694  0.2320
  330SOL    HW2 1234   6.223   4.083   3.031  0.3242 -0.1559  1.3688
  331SOL     OW 1235   4.401   4.616   2.112  0.5144  0.5054 -0.0850
  331SOL    HW1 1236   4.455   4.672   2.167  1.1794 -1.0220  0.9107
  331SOL    HW2 1237   4.463   4.560   2.066 -0.1308 -1.3200  1.1120
  332SOL     OW 1238   2.879   1.944   2.728  0.2428  0.0100 -0.1614
  332SOL    HW1 1239   2.917   2.030   2.747  1.1869 -0.3132 -0.4817
  332SOL    HW2 1240   2.818   1.960   2.657  0.7048  0.3599 -0.4861
  333SOL     OW 1241   4.898   2.877   2.446  0.1323 -0.3407 -0.4596
  333SOL    HW1 1242   4.854   2.795   2.425  0.9036 -0.5398 -1.3728
  333SOL    HW2 1243   4.949   2.898   2.368  0.4011  0.7093 -0.0239
  334SOL     OW 1244   3.674   0.926   0.716 -0.9898 -0.0819 -0.0712
  334SOL    HW1 1245   3.674   1.021   0.702  0.8918  0.3196  2.1076
  334SOL    HW2 1246   3.640   0.915   0.804  1.4883 -1.1375  0.8375
  335SOL     OW 1247   3.133   3.489   3.027 -0.1167  0.3688 -0.1476
  335SOL    HW1 1248   3.085   3.525   3.103  0.4162  0.1922  0.2778
  335SOL    HW2 1249   3.178   3.412   3.062 -0.3873 -0.0894 -0.8050
  336SOL     OW 1250   5.552   4.521   1.357  0.1882 -0.0160  0.3597
  336SOL    HW1 1251   5.606   4.600   1.355 -0.6929  0.5798 -0.5547
  336SOL    HW2 1252   5.500   4.525   1.277 -2.1473  0.1070  1.7949
  337SOL     OW 1253   6.229   3.661   2.638 -0.2406  0.4851  0.1247
  337SOL    HW1 1254   6.246   3.735   2.697 -0.0043  0.9599 -0.5289
  337SOL    HW2 1255   6.146   3.625   2.668  0.5837 -0.2392  1.7207
  338SOL     OW 1256   3.638   2.148   1.263  0.5111  0.4118 -0.2523
  338SOL    HW1 1257   3.704   2.099   1.313  0.1589  1.5157  1.3990
  338SOL    HW2 1258   3.650   2.120   1.173  2.1758 -0.6023  0.2388
  339SOL     OW 1259   1.555   3.626   1.272 -0.4618  0.5478 -0.1319
  339SOL    HW1 1260   1.501   3.705   1.271  0.9905  1.5911 -0.4063
  339SOL    HW2 1261   1.577   3.610   1.180  1.4879  1.5040  0.0953
  340SOL     OW 1262   3.780   3.154   1.890 -0.8801 -0.4385 -0.8022
  340SOL    HW1 1263   3.792   3.147   1.795  0.8799 -2.0817 -0.5209
  340SOL    HW2 1264   3.690   3.126   1.905 -0.7407 -1.5498 -1.8889
  341SOL     OW 1265   1.381   1.634   0.374  0.1077  0.3960 -0.2281
  341SOL    HW1 1266   1.388   1.596   0.286 -2.1203  1.5889 -0.9801
  341SOL    HW2 1267   1.306   1.589   0.413  1.9485 -1.2259  1.7445
  342SOL     OW 1268   4.398   1.353   0.766 -0.4515 -0.1437 -0.3186
  342SOL    HW1 1269   4.486   1.388   0.752 -0.7511  0.9224  0.3669
  342SOL    HW2 1270   4.343   1.399   0.703 -0.4576 -1.1376 -1.0609
  343SOL     OW 1271   4.005   0.466   0.395 -0.1916 -0.6615  0.0274
  343SOL    HW1 1272   3.946   0.469   0.321  0.3207  0.2542 -0.3527
  343SOL    HW2 1273   3.965   0.403   0.455 -0.9982 -0.8356 -0.6798
  344SOL     OW 1274   1.142   4.117   1.291  0.0790 -0.3243  0.1101
  344SOL    HW1 1275   1.119   4.196   1.340  0.3950  0.4418 -0.9326
  344SOL    HW2 1276   1.106   4.045   1.342  2.3667  0.2038  2.6887
  345SOL     OW 1277   1.132   4.058   0.934 -0.2342 -0.3892 -0.0604
  345SOL    HW1 1278   1.138   4.082   1.027  0.2877 -4.2554  1.0965
  345SOL    HW2 1279   1.222   4.064   0.902 -0.5134  1.6627 -0.6619
  346SOL     OW 1280   4.637   3.343   1.697 -0.2336 -0.3400 -0.2528
  346SOL    HW1 1281   4.638   3.427   1.743 -1.3871 -0.1802 -0.4950
  346SOL    HW2 1282   4.665   3.364   1.608 -1.9506  0.0607 -0.7207
  347SOL     OW 1283   1.820   3.527   1.900  0.2876  0.4327 -0.2427
  347SOL    HW1 1284   1.866   3.538   1.984  0.9031  0.7010 -0.6089
  347SOL    HW2 1285   1.786   3.438   1.903  0.3243  0.4326  0.2848
  348SOL     OW 1286   1.597   0.255   0.197 -0.1531 -0.5439  0.5375
  348SOL    HW1 1287   1.574   0.264   0.104 -1.2781  0.9940  0.9226
  348SOL    HW2 1288   1.689   0.281   0.201 -0.3398  0.2774 -0.0365
  349SOL     OW 1289   3.872   2.378   3.350 -0.6339  0.1186  0.4960
  349SOL    HW1 1290   3.856   2.472   3.345 -1.4763 -0.0466 -3.7978
  349SOL    HW2 1291   3.819   2.348   3.423 -1.6540  2.7396  0.9325
  350SOL     OW 1292   5.561   3.218   1.712 -0.2082 -0.7611 -0.1313
  350SOL    HW1 1293   5.652   3.247   1.715 -0.1708 -0.7002 -1.3738
  350SOL    HW2 1294   5.565   3.134   1.667 -0.5262 -1.9061  1.8285
  351SOL     OW 1295   2.561   1.163   0.638 -0.2996 -0.4289 -0.0199
  351SOL    HW1 1296   2.526   1.097   0.698 -2.2358  1.6763  1.3462
  351SOL    HW2 1297   2.634   1.202   0.685 -1.3188  0.6803  0.6941
  352SOL     OW 1298   4.218   1.418   1.908  0.0370  0.1938  0.4324
  352SOL    HW1 1299   4.207   1.478   1.982 -2.3709 -1.5849  1.6558
  352SOL    HW2 1300   4.225   1.475   1.832  0.6778  2.0515  1.8079
  353SOL     OW 1301   1.780   4.653   1.383  0.0633 -0.1413  0.4055
  353SOL    HW1 1302   1.727   4.635   1.460 -0.3444 -1.4265 -0.1504
  353SOL    HW2 1303   1.766   4.746   1.365  0.3449  0.2433  1.9868
  354SOL     OW 1304   3.825   2.813   1.438 -0.1144  0.7428 -0.1376
  354SOL    HW1 1305   3.887   2.747   1.469 -1.5480 -0.7092 -0.2561
  354SOL    HW2 1306   3.764   2.764   1.383 -1.5281  2.0742  0.1970
  355SOL     OW 1307   3.866   5.193   1.493 -0.2540 -0.4049 -0.3106
  355SOL    HW1 1308   3.943   5.166   1.444 -1.2741 -0.7729 -1.7767
  355SOL    HW2 1309   3.894   5.192   1.585  1.4316 -0.6323 -0.7976
  356SOL     OW 1310   5.231   6.016   2.813  0.7593 -0.1965  0.8068
  356SOL    HW1 1311   5.174   6.035   2.887 -2.2224 -1.6217 -0.9167
  356SOL    HW2 1312   5.239   6.099   2.766 -2.2859 -0.4417 -0.3421
  357SOL     OW 1313   5.029   3.673   1.115 -0.1807  0.0477  0.0877
  357SOL    HW1 1314   5.073   3.754   1.089  0.3189  0.0638  0.9267
  357SOL    HW2 1315   4.943   3.701   1.147  0.8725  0.5961  2.7066
  358SOL     OW 1316   5.577   2.319   2.477  0.0793 -0.0764  0.4727
  358SOL    HW1 1317   5.609   2.400   2.435  1.1874 -0.2753  0.8798
  358SOL    HW2 1318   5.496   2.298   2.431 -0.6867  1.7247  0.9023
  359SOL     OW 1319   4.776   1.589   1.126 -0.8000 -0.5063  1.2643
  359SOL    HW1 1320   4.824   1.585   1.044 -3.2171  1.7558 -0.4287
  359SOL    HW2 1321   4.695   1.542   1.110 -1.2705 -0.1392  2.4026
  360SOL     OW 1322   6.097   3.148   2.281 -0.5529  0.1198  0.2393
  360SOL    HW1 1323   6.014   3.112   2.251 -0.2584 -1.7951  1.5665
  360SOL    HW2 1324   6.085   3.162   2.375  0.2492  0.9306  0.2364
  361SOL     OW 1325   1.466   2.266   1.107 -0.0311 -0.2402 -0.1437
  361SOL    HW1 1326   1.437   2.179   1.079 -0.9717 -0.7179  2.1140
  361SOL    HW2 1327   1.421   2.281   1.189 -1.4305  3.2726 -1.3745
  362SOL     OW 1328   3.288   3.784   0.517 -0.7025  0.3909  0.0154
  362SOL    HW1 1329   3.211   3.727   0.519 -1.1838  0.9089 -1.6709
  362SOL    HW2 1330   3.339   3.752   0.443  0.8272 -0.0478  1.2203
  363SOL     OW 1331   2.971   3.900   2.661  0.4727  0.4972 -0.3521
  363SOL    HW1 1332   2.941   3.838   2.727  2.8931 -1.9764 -1.3304
  363SOL    HW2 1333   2.931   3.870   2.579  2.2678 -0.3791 -0.9717
  364SOL     OW 1334   3.503   1.927   0.798 -0.4570 -0.0104  0.6291
  364SOL    HW1 1335   3.505   1.832   0.796  0.9294 -0.0140  1.0115
  364SOL    HW2 1336   3.419   1.950   0.759 -1.2209 -1.4039  1.3604
  365SOL     OW 1337   2.781   6.593   2.958 -0.0629 -0.3038  0.2072
  365SOL    HW1 1338   2.808   6.657   2.893 -0.2817  1.2825  1.6127
  365SOL    HW2 1339   2.687   6.605   2.967  0.1208  0.3569  1.6333
  366SOL     OW 1340   3.999   1.832   0.486  0.0632 -0.3352 -0.3341
  366SOL    HW1 1341   3.984   1.761   0.424  0.8963 -0.7849 -0.0476
  366SOL    HW2 1342   4.033   1.788   0.564  3.8787  0.5711 -1.2628
  367SOL     OW 1343   4.238   3.746   1.940  0.5125  0.5921  0.2150
  367SOL    HW1 1344   4.155   3.700   1.933  1.5120 -1.5394  1.2773
  367SOL    HW2 1345   4.262   3.767   1.850 -0.4679 -0.1347 -0.2293
  368SOL     OW 1346   5.244   3.540   2.919 -0.1975  0.5942  0.4819
  368SOL    HW1 1347   5.245   3.447   2.894 -0.7981  0.7996 -0.3599
  368SOL    HW2 1348   5.255   3.539   3.014 -1.5156 -0.4274  0.6617
  369SOL     OW 1349   3.008   4.592   3.341 -0.0585 -0.0182  0.2353
  369SOL    HW1 1350   3.014   4.503   3.306  0.9856 -0.3608  1.2202
  369SOL    HW2 1351   2.966   4.582   3.426  1.8246  0.1385  1.2369
  370SOL     OW 1352   2.411   3.281   0.116 -0.1512 -0.2863 -0.5331
  370SOL    HW1 1353   2.464   3.352   0.080  0.0667 -0.6450 -0.9258
  370SOL    HW2 1354   2.431   3.281   0.210  0.5655 -0.4312 -0.6806
  371SOL     OW 1355   4.770   3.933   1.301 -0.0986  0.0618  0.4104
  371SOL    HW1 1356   4.692   3.914   1.353 -0.0149  0.3099  0.6276
  371SOL    HW2 1357   4.736   3.947   1.213  0.0885 -3.9834 -0.4827
  372SOL     OW 1358   4.674   1.867   0.938  0.5954 -0.3094  0.1025
  372SOL    HW1 1359   4.752   1.812   0.940  1.3886  0.8038  0.9993
  372SOL    HW2 1360   4.705   1.953   0.910 -0.4420 -0.0368 -0.2555
  373SOL     OW 1361   2.779   3.292   1.610  0.0482  0.6037 -0.4401
  373SOL    HW1 1362   2.817   3.288   1.698 -2.6980  0.1800  0.8159
  373SOL    HW2 1363   2.742   3.205   1.595 -0.9794  1.1639 -1.2942
  374SOL     OW 1364   2.234   4.623   0.825 -0.3695  0.7322  0.7609
  374SOL    HW1 1365   2.283   4.632   0.906 -0.3196  0.7269  0.7317
  374SOL    HW2 1366   2.289   4.666   0.759  0.0712 -0.1444  0.5419
  375SOL     OW 1367   5.762   3.156   1.439 -0.1521 -0.5318  0.1901
  375SOL    HW1 1368   5.691   3.214   1.413  0.6678  0.6980  0.5790
  375SOL    HW2 1369   5.750   3.077   1.386 -0.4076  0.6018 -1.5178
  376SOL     OW 1370   0.541   2.886  -0.014  0.2898 -0.2703  0.5719
  376SOL    HW1 1371   0.522   2.966   0.036 -1.8665 -0.2545 -0.1494
  376SOL    HW2 1372   0.634   2.869   0.002  0.7922  2.2823  0.8994
  377SOL     OW 1373   4.875   5.969   1.981  0.2109 -0.4757  0.0331
  377SOL    HW1 1374   4.962   5.974   1.943  0.4535 -1.0120  0.4952
  377SOL    HW2 1375   4.888   5.993   2.073 -0.2082 -0.0988 -0.0037
  378SOL     OW 1376   5.152   6.654   2.923  0.7232  0.1873  0.0520
  378SOL    HW1 1377   5.229   6.600   2.934  0.3458 -0.1301  1.3068
  378SOL    HW2 1378   5.175   6.738   2.964  0.5378  0.2226  0.0865
  379SOL     OW 1379   2.365   2.658   1.584  0.3771 -0.6632 -0.0059
  379SOL    HW1 1380   2.385   2.592   1.518 -1.4248 -0.8325 -0.4286
  379SOL    HW2 1381   2.293   2.709   1.546 -0.3278 -0.4180  1.5796
  380SOL     OW 1382   3.297   0.554   0.410 -0.1080  0.5532 -0.1689
  380SOL    HW1 1383   3.391   0.538   0.410  0.6242  4.0206  0.9854
  380SOL    HW2 1384   3.278   0.592   0.324  0.0578  2.0170  0.4151
  381SOL     OW 1385   4.560   2.009   0.119  0.2465  0.0186  0.3842
  381SOL    HW1 1386   4.532   2.034   0.031  1.0214 -1.2889 -0.2656
  381SOL    HW2 1387   4.596   2.089   0.156 -2.4398  1.2656  0.5378
  382SOL     OW 1388   2.411   3.807   2.251  0.3814  0.1937  0.1262
  382SOL    HW1 1389   2.421   3.852   2.167  0.4651 -1.2003 -0.6265
  382SOL    HW2 1390   2.412   3.714   2.229 -0.8023 -0.1855  1.5465
  383SOL     OW 1391   1.604   4.846   1.220  0.4773 -0.3660  0.2058
  383SOL    HW1 1392   1.617   4.939   1.239 -3.0021  0.2058  0.3076
  383SOL    HW2 1393   1.623   4.837   1.126 -1.4176  1.0075 -0.3576
  384SOL     OW 1394   5.040   3.976   2.953 -0.0586 -0.3046  0.2605
  384SOL    HW1 1395   5.069   3.979   2.862  0.5484  2.0770  0.4778
  384SOL    HW2 1396   5.106   4.026   3.001 -0.1757 -1.7754  2.1021
  385SOL     OW 1397   4.070   1.718   0.713  0.3450  0.1635 -0.3270
  385SOL    HW1 1398   4.155   1.724   0.757  0.1981 -0.1592  0.0060
  385SOL    HW2 1399   4.007   1.745   0.779  0.2713  1.4829 -0.9071
  386SOL     OW 1400   2.366   1.371   1.475  0.4878  0.1092  0.6701
  386SOL    HW1 1401   2.353   1.302   1.539  0.9107  0.5821  1.2742
  386SOL    HW2 1402   2.461   1.377   1.465  0.4276 -0.0398 -0.0975
  387SOL     OW 1403   1.081   1.940   0.052 -0.0194  0.0067 -0.5083
  387SOL    HW1 1404   0.987   1.953   0.052  0.1624  1.5497  0.5656
  387SOL    HW2 1405   1.115   2.003   0.116  2.0046  1.7052 -3.0263
  388SOL     OW 1406   3.025   5.108   0.639  0.0688 -0.2925  0.0234
  388SOL    HW1 1407   2.975   5.048   0.694  1.7333  0.2136  2.2666
  388SOL    HW2 1408   2.964   5.178   0.618 -0.6132 -0.4663  1.3553
  389SOL     OW 1409   0.797   4.877   0.619 -0.5135 -0.1497  0.6438
  389SOL    HW1 1410   0.781   4.786   0.644 -2.3675  0.3701  1.5802
  389SOL    HW2 1411   0.800   4.924   0.703  1.0847  0.5956  0.2127
  390SOL     OW 1412   5.287   1.497   0.845  0.0955  0.0588 -0.1663
  390SOL    HW1 1413   5.196   1.497   0.816 -0.2724  0.0742  0.9715
  390SOL    HW2 1414   5.338   1.504   0.763 -0.8478 -1.7321 -0.9629
  391SOL     OW 1415   6.212   6.122   2.451  0.3164 -0.5562 -0.1418
  391SOL    HW1 1416   6.300   6.143   2.482 -0.1684  0.6350  0.5175
  391SOL    HW2 1417   6.165   6.095   2.530  0.1584 -1.4921 -0.5410
  392SOL     OW 1418   3.899   4.416   2.546  0.1579 -0.1587 -0.7571
  392SOL    HW1 1419   3.823   4.457   2.506 -0.6997  0.9092  1.7682
  392SOL    HW2 1420   3.905   4.330   2.504 -2.3947 -0.2496 -1.0765
  393SOL     OW 1421   4.720   4.227   0.101 -0.5540 -0.5596 -0.1141
  393SOL    HW1 1422   4.721   4.138   0.065 -0.1853  0.8397 -4.0109
  393SOL    HW2 1423   4.725   4.214   0.196 -0.4180 -4.6507 -0.4880
  394SOL     OW 1424   1.681   2.839   1.172 -0.2087 -0.4752 -0.4188
  394SOL    HW1 1425   1.764   2.835   1.219 -0.6802  0.2136  0.4794
  394SOL    HW2 1426   1.701   2.799   1.087  0.9078 -0.7895 -0.0313
  395SOL     OW 1427   5.983   3.841   2.410  0.0853 -0.2258 -0.7856
  395SOL    HW1 1428   5.928   3.825   2.333 -1.3664  1.0554 -0.0908
  395SOL    HW2 1429   5.945   3.919   2.450  2.1879  0.4669  0.0077
  396SOL     OW 1430   2.506   3.173   0.672  0.8205  0.5702  0.1052
  396SOL    HW1 1431   2.418   3.138   0.659  0.0933  1.7517  1.5835
  396SOL    HW2 1432   2.554   3.102   0.715  0.5893 -0.0452 -0.6251
  397SOL     OW 1433   5.868   4.674   2.932 -0.1641  0.4141  0.1242
  397SOL    HW1 1434   5.908   4.588   2.941 -3.5051 -1.5374 -1.5346
  397SOL    HW2 1435   5.827   4.690   3.017 -1.9903 -1.1319 -0.3983
  398SOL     OW 1436   6.516   5.502   2.474 -0.4553  0.0240  0.7940
  398SOL    HW1 1437   6.494   5.572   2.412  2.1490 -0.3864 -0.7114
  398SOL    HW2 1438   6.561   5.547   2.546  1.0382 -0.0446 -0.0759
  399SOL     OW 1439   1.579   3.878   0.773  0.9780  0.7536 -0.0563
  399SOL    HW1 1440   1.672   3.902   0.770  0.9713  0.8332  0.2967
  399SOL    HW2 1441   1.551   3.878   0.681  1.6030 -0.3704 -0.2658
  400SOL     OW 1442   2.682   3.627   3.019  0.3161  0.6057 -0.0034
  400SOL    HW1 1443   2.703   3.556   3.081  2.3011  0.9183 -0.2414
  400SOL    HW2 1444   2.645   3.696   3.074 -0.7699 -0.2396  0.3668
  401SOL     OW 1445   2.284   3.529   0.897  0.3377  0.0453  0.3863
  401SOL    HW1 1446   2.203   3.500   0.855  0.5881  0.7116 -0.6170
  401SOL    HW2 1447   2.290   3.478   0.977 -1.5181  0.5735  0.9227
  402SOL     OW 1448   3.946   3.018   0.800 -0.2163 -0.1567  0.3189
  402SOL    HW1 1449   3.880   2.973   0.852 -0.1619  1.4754  1.9124
  402SOL    HW2 1450   4.024   3.019   0.855  0.4074  0.0944 -0.5350
  403SOL     OW 1451   5.736   6.291   2.331  0.5512 -0.1398  0.3253
  403SOL    HW1 1452   5.828   6.289   2.305  0.2988  0.6223 -0.7158
  403SOL    HW2 1453   5.716   6.384   2.339 -0.0610 -0.3088  0.8049
  404SOL     OW 1454   3.774   6.150   3.354  0.2518  0.1463 -0.2666
  404SOL    HW1 1455   3.729   6.195   3.282  0.0874  1.5177  0.6486
  404SOL    HW2 1456   3.867   6.158   3.333  0.1877  0.0984 -0.5764
  405SOL     OW 1457   1.714   0.629   0.369  0.1972  0.0922 -0.0772
  405SOL    HW1 1458   1.803   0.596   0.361  0.3054  0.4184 -0.2521
  405SOL    HW2 1459   1.663   0.556   0.403  0.2600 -0.5279 -1.2580
  406SOL     OW 1460   2.606   1.282   1.725 -0.5964 -0.5642 -0.3314
  406SOL    HW1 1461   2.548   1.302   1.799  1.8518 -0.7699  1.7835
  406SOL    HW2 1462   2.651   1.365   1.708  0.8962 -1.2178  0.3495
  407SOL     OW 1463   6.908   5.352   3.185  0.3533  0.3218 -0.3667
  407SOL    HW1 1464   6.994   5.341   3.147 -0.1838 -0.2536 -1.4518
  407SOL    HW2 1465   6.885   5.266   3.218  0.7505  0.7757  1.1934
  408SOL     OW 1466   4.461   5.614   2.309 -0.1827 -0.0713  0.4545
  408SOL    HW1 1467   4.550   5.648   2.317  0.1554 -0.9016  0.3365
  408SOL    HW2 1468   4.420   5.633   2.394 -0.3075  1.4088  0.1040
  409SOL     OW 1469   3.245   4.789   2.104  0.6615 -0.4965 -0.2802
  409SOL    HW1 1470   3.323   4.806   2.158  0.7128 -0.8417 -0.2391
  409SOL    HW2 1471   3.264   4.705   2.061  0.1151 -0.8201  0.0942
  410SOL     OW 1472   2.844   1.904   0.048 -0.3640 -0.2736  0.1170
  410SOL    HW1 1473   2.787   1.942  -0.019  0.1370 -2.0221 -1.4022
  410SOL    HW2 1474   2.788   1.894   0.125 -0.8107  2.3045  0.2085
  411SOL     OW 1475   1.411   4.396   1.375 -0.0579  0.3601  0.3186
  411SOL    HW1 1476   1.498   4.371   1.345 -0.0128  2.2336 -1.2705
  411SOL    HW2 1477   1.357   4.318   1.360  1.0649 -0.4110  0.1595
  412SOL     OW 1478   6.255   3.531   2.386 -0.1607  0.1488 -0.2311
  412SOL    HW1 1479   6.162   3.510   2.390  0.1649 -1.2358  0.6913
  412SOL    HW2 1480   6.275   3.573   2.470 -0.1402  1.4032 -0.8312
  413SOL     OW 1481   5.494   5.382   3.056 -0.2266 -0.0721  0.1759
  413SOL    HW1 1482   5.422   5.321   3.075  0.2366 -0.4796  0.6500
  413SOL    HW2 1483   5.514   5.368   2.964  1.0648 -1.9443  0.6912
  414SOL     OW 1484   1.274   2.877   0.114  0.4205 -0.0770  0.2713
  414SOL    HW1 1485   1.202   2.862   0.175  2.0176  0.3853  2.4145
  414SOL    HW2 1486   1.257   2.964   0.077 -0.3518 -0.1737  0.3894
  415SOL     OW 1487   2.927   1.261   0.007  0.0110  0.4725 -0.8023
  415SOL    HW1 1488   2.870   1.282   0.081  2.1499 -2.6600  2.0164
  415SOL    HW2 1489   2.946   1.346  -0.033  1.6959  3.0921  4.6048
  416SOL     OW 1490   1.766   3.457   2.330 -0.0419 -0.2475  0.0816
  416SOL    HW1 1491   1.687   3.405   2.317 -0.4495  0.5857 -0.8390
  416SOL    HW2 1492   1.814   3.411   2.399 -0.6120 -1.5897 -0.3908
  417SOL     OW 1493   3.210   4.411   0.725  0.4682  0.6555  0.6803
  417SOL    HW1 1494   3.207   4.487   0.667  0.9198  0.7193  0.7349
  417SOL    HW2 1495   3.293   4.420   0.772  1.6018 -1.0053 -0.8556
  418SOL     OW 1496   4.119   0.182   0.126  0.3830  0.2834  0.1260
  418SOL    HW1 1497   4.095   0.118   0.193 -0.4170  0.7081  0.2578
  418SOL    HW2 1498   4.205   0.214   0.153 -0.5069  1.4962  1.7824
  419SOL     OW 1499   6.068   4.851   3.243  0.0284  0.0424  0.2609
  419SOL    HW1 1500   5.999   4.800   3.202  1.2679 -1.0261 -0.5629
  419SOL    HW2 1501   6.107   4.791   3.306  1.9682 -0.3473 -1.2219
  420SOL     OW 1502   1.916   5.035   2.200  0.2988  0.3326 -0.0125
  420SOL    HW1 1503   1.885   5.041   2.290 -1.6751 -1.2999 -0.4948
  420SOL    HW2 1504   1.843   5.066   2.147  1.4555  1.3349 -1.0778
  421SOL     OW 1505   1.682   1.521   0.360  0.1670  0.3773 -0.0898
  421SOL    HW1 1506   1.670   1.481   0.446  0.1625 -0.0648 -0.2905
  421SOL    HW2 1507   1.715   1.609   0.378 -0.7209  0.6200  0.3940
  422SOL     OW 1508   3.694   3.410   3.225 -0.7626 -0.9533 -0.2486
  422SOL    HW1 1509   3.717   3.417   3.132 -0.0002  0.3767  0.0103
  422SOL    HW2 1510   3.614   3.462   3.233 -1.2814 -1.7403 -0.3055
  423SOL     OW 1511   4.857   4.500   2.394  0.5670  0.2058 -0.0030
  423SOL    HW1 1512   4.777   4.479   2.442  1.0337  0.7574  1.0497
  423SOL    HW2 1513   4.862   4.434   2.325  1.0840 -2.1179  2.1005
  424SOL     OW 1514   3.672   4.640   1.013  0.2943  0.2596 -0.1761
  424SOL    HW1 1515   3.753   4.619   0.968  0.9263  1.4192  0.3710
  424SOL    HW2 1516   3.635   4.713   0.962 -0.5743 -0.4578 -0.6029
  425SOL     OW 1517   1.538   4.390   1.658  0.1421 -0.3174  0.7955
  425SOL    HW1 1518   1.504   4.409   1.571 -1.5454 -0.5958  1.3521
  425SOL    HW2 1519   1.465   4.347   1.703 -0.5892  3.4322  3.6764
  426SOL     OW 1520   3.460   2.609   1.097  0.2048 -0.3506 -0.0427
  426SOL    HW1 1521   3.451   2.690   1.045  0.4951 -0.8078 -0.8167
  426SOL    HW2 1522   3.530   2.629   1.160 -0.0589  0.1632  0.1014
  427SOL     OW 1523   3.615   4.885   0.898  0.1712  0.0664  0.5419
  427SOL    HW1 1524   3.553   4.942   0.852 -0.5221  0.0726  1.4465
  427SOL    HW2 1525   3.701   4.913   0.867 -0.2017  1.0776  0.3750
  428SOL     OW 1526   5.555   6.227   3.170  0.1619  0.4835  0.6063
  428SOL    HW1 1527   5.479   6.169   3.164  0.8565 -0.3263 -0.8148
  428SOL    HW2 1528   5.518   6.315   3.164 -0.7874  0.1737  1.4962
  429SOL     OW 1529   1.777   4.042   1.773  0.0871  0.2540  0.8445
  429SOL    HW1 1530   1.786   3.947   1.785  0.4061  0.2611  0.6834
  429SOL    HW2 1531   1.824   4.060   1.691 -1.2803  0.3333  0.0511
  430SOL     OW 1532   3.979   1.931   1.490 -0.2080  0.2450  0.1516
  430SOL    HW1 1533   4.048   1.925   1.555  0.0934  0.6524 -0.1225
  430SOL    HW2 1534   3.902   1.963   1.538  0.3014  1.5871  0.1178
  431SOL     OW 1535   5.011   4.851   2.860 -0.2127 -0.1280  0.2024
  431SOL    HW1 1536   4.974   4.904   2.930 -0.9211  1.2825 -1.1502
  431SOL    HW2 1537   5.102   4.880   2.854 -0.5782  0.9793 -0.4860
  432SOL     OW 1538   1.529   3.717   0.997  0.0178 -0.0801 -0.0628
  432SOL    HW1 1539   1.497   3.634   0.961 -1.0603  0.1211  0.3899
  432SOL    HW2 1540   1.549   3.770   0.920  1.2613 -0.9455 -0.3603
  433SOL     OW 1541   3.957   1.528   1.696 -0.2362  0.1131  0.1330
  433SOL    HW1 1542   4.040   1.575   1.695 -0.5756  0.7247  0.1134
  433SOL    HW2 1543   3.939   1.512   1.789 -0.4736  0.6758  0.1901
  434SOL     OW 1544   2.841   2.573   0.530  0.0145 -0.7932  0.2278
  434SOL    HW1 1545   2.893   2.628   0.471  0.3354 -1.5726 -0.2349
  434SOL    HW2 1546   2.904   2.537   0.592  0.1135 -2.0097 -0.5402
  435SOL     OW 1547   2.369   3.562   2.145  0.3951  0.2400  0.4669
  435SOL    HW1 1548   2.458   3.535   2.166  0.6735  0.0871 -0.8671
  435SOL    HW2 1549   2.347   3.515   2.065  0.5613  3.1214 -1.4324
  436SOL     OW 1550   4.657   3.371   3.243  0.1050  0.1519  0.4705
  436SOL    HW1 1551   4.581   3.374   3.185 -0.2054 -1.1331  0.7833
  436SOL    HW2 1552   4.732   3.369   3.183 -0.2291 -1.8129  0.0592
  437SOL     OW 1553   4.858   2.089   1.444 -0.3790  0.4349  0.0967
  437SOL    HW1 1554   4.765   2.068   1.438 -0.4143  0.7543 -0.5788
  437SOL    HW2 1555   4.902   2.006   1.425 -0.5164  0.9025 -2.7761
  438SOL     OW 1556   4.358   2.428   1.127 -0.3172  0.1414  0.0760
  438SOL    HW1 1557   4.291   2.385   1.180  0.3901  0.4217  1.2340
  438SOL    HW2 1558   4.319   2.512   1.102 -1.0473 -0.4273 -0.7404
  439SOL     OW 1559   4.569   5.081   0.914 -0.3558 -0.3826 -0.2185
  439SOL    HW1 1560   4.512   5.106   0.842 -2.1729  0.5013  1.4593
  439SOL    HW2 1561   4.536   5.128   0.990  0.4605 -2.5141  1.5864
  440SOL     OW 1562   4.136   2.346   0.698  0.6284  0.4495 -0.6562
  440SOL    HW1 1563   4.148   2.255   0.669 -1.3284  0.2154 -0.9092
  440SOL    HW2 1564   4.219   2.389   0.678  2.2548 -1.6599  1.0947
  441SOL     OW 1565   1.171   2.051   0.447 -0.0887 -0.6120  0.1720
  441SOL    HW1 1566   1.261   2.018   0.459 -0.5813 -3.1853 -2.1074
  441SOL    HW2 1567   1.181   2.128   0.392  0.7705 -0.2810  0.7698
  442SOL     OW 1568   0.463   3.368   0.309 -0.9144  0.2491 -0.0682
  442SOL    HW1 1569   0.558   3.361   0.295 -0.6099  0.2110  1.8234
  442SOL    HW2 1570   0.439   3.452   0.271 -0.0492  0.4291 -0.2247
  443SOL     OW 1571   3.670   4.887   2.374  0.0600 -0.4405 -0.2344
  443SOL    HW1 1572   3.719   4.917   2.450 -0.1379  1.0048 -0.6510
  443SOL    HW2 1573   3.737   4.854   2.314  0.3484 -0.2329 -0.0300
  444SOL     OW 1574   2.924   3.366   0.157 -0.2052 -0.2209 -0.2300
  444SOL    HW1 1575   2.967   3.309   0.221  2.5647 -0.4556 -2.1199
  444SOL    HW2 1576   2.987   3.436   0.141 -2.4026  1.9502 -0.0072
  445SOL     OW 1577   1.643   4.373   1.921  0.1901  0.9547  0.1476
  445SOL    HW1 1578   1.598   4.457   1.924  0.1841  0.9336  0.7938
  445SOL    HW2 1579   1.593   4.321   1.858 -0.3996  1.0938  0.4940
  446SOL     OW 1580   5.782   5.746   2.118 -0.3780 -0.0244 -0.2244
  446SOL    HW1 1581   5.837   5.695   2.058  0.8749  1.2059 -0.1659
  446SOL    HW2 1582   5.693   5.712   2.104 -0.1130  0.1709 -2.7025
  447SOL     OW 1583   4.851   5.358   3.234 -0.1040 -0.0917 -0.0622
  447SOL    HW1 1584   4.793   5.384   3.306  2.6814  1.1481  1.9072
  447SOL    HW2 1585   4.847   5.262   3.234 -0.5298 -0.1032  1.4251
  448SOL     OW 1586   4.304   2.939   1.840 -0.0222 -0.5179 -0.1294
  448SOL    HW1 1587   4.376   2.892   1.797  2.0897  0.8539  1.7132
  448SOL    HW2 1588   4.315   3.030   1.814  1.1082  0.3084  2.7692
  449SOL     OW 1589   5.173   4.373   2.225  0.2107 -0.4225 -0.3459
  449SOL    HW1 1590   5.230   4.307   2.185 -0.6336 -1.4221  0.0201
  449SOL    HW2 1591   5.087   4.330   2.228 -0.7760  1.3376 -1.6617
  450SOL     OW 1592   3.696   0.625   0.066 -0.0023 -0.1025  0.2578
  450SOL    HW1 1593   3.628   0.687   0.093 -0.9897 -1.3456  0.7108
  450SOL    HW2 1594   3.709   0.642  -0.027 -1.3786 -0.2515  0.0265
  451SOL     OW 1595   2.477   4.446   2.712  0.2674 -0.3624 -0.0496
  451SOL    HW1 1596   2.437   4.463   2.798  0.4690  0.7901 -0.1561
  451SOL    HW2 1597   2.454   4.356   2.692 -1.2666 -0.1122  0.4297
  452SOL     OW 1598   2.360   0.523   0.602 -0.2728  0.1467 -0.6540
  452SOL    HW1 1599   2.389   0.520   0.693  0.1739  0.4861 -0.7791
  452SOL    HW2 1600   2.417   0.461   0.557 -1.5836 -1.2746 -0.4232
  453SOL     OW 1601   1.611   2.804   1.948 -0.0241 -0.2419 -0.1659
  453SOL    HW1 1602   1.634   2.836   1.861 -1.8244 -0.9334 -0.9584
  453SOL    HW2 1603   1.586   2.882   1.997 -0.5801 -0.0026 -0.8175
  454SOL     OW 1604   3.178   4.386   3.036 -0.2304  0.0051  0.4325
  454SOL    HW1 1605   3.124   4.373   3.114 -0.9071  0.4686  0.0592
  454SOL    HW2 1606   3.267   4.392   3.069 -0.5289  0.4024  1.1944
  455SOL     OW 1607   2.447   4.314   0.010  0.0258 -0.2738  0.1273
  455SOL    HW1 1608   2.483   4.371  -0.057  1.6955 -1.6314 -0.1715
  455SOL    HW2 1609   2.522   4.286   0.062 -0.7765 -1.9396  0.4683
  456SOL     OW 1610   1.931   4.673   2.403 -0.0166  0.3798 -0.2997
  456SOL    HW1 1611   1.943   4.746   2.464 -0.1492 -0.1465  0.3680
  456SOL    HW2 1612   1.968   4.598   2.449 -2.2001 -0.4973  0.1235
  457SOL     OW 1613   4.605   2.291   0.214  0.5616 -0.0282  0.3202
  457SOL    HW1 1614   4.556   2.358   0.260 -1.9020 -0.4817 -1.4443
  457SOL    HW2 1615   4.695   2.302   0.244 -0.5247  0.9319  3.6375
  458SOL     OW 1616   1.244   2.857   1.262  0.1462 -0.8286  0.0883
  458SOL    HW1 1617   1.274   2.919   1.328  1.2460 -1.2470 -0.0038
  458SOL    HW2 1618   1.152   2.841   1.285 -1.0630  2.7936 -1.3940
  459SOL     OW 1619   5.816   6.214   3.055  0.4240  0.0481 -0.5166
  459SOL    HW1 1620   5.882   6.212   3.124  0.8058 -1.4101 -0.8772
  459SOL    HW2 1621   5.732   6.209   3.101  0.6903 -1.7368 -0.1370
  460SOL     OW 1622   1.946   2.866   1.195 -0.4942  0.6594  0.4767
  460SOL    HW1 1623   2.004   2.887   1.268  0.0490  0.1576  0.2057
  460SOL    HW2 1624   1.995   2.895   1.117 -0.4273 -0.1291  0.2145
  461SOL     OW 1625   1.174   4.326   1.068  0.1119  0.9917 -0.5026
  461SOL    HW1 1626   1.164   4.273   1.146  1.2178 -0.0071 -1.0003
  461SOL    HW2 1627   1.268   4.322   1.048 -0.2859  0.1940 -2.5482
  462SOL     OW 1628   6.078   2.411   2.387 -0.2480  0.0940  0.1435
  462SOL    HW1 1629   5.994   2.378   2.419 -1.9442  2.9275 -1.0710
  462SOL    HW2 1630   6.115   2.338   2.337 -3.1908 -0.4953 -1.4066
  463SOL     OW 1631   4.677   3.017   2.485 -0.1277  0.1758  0.5507
  463SOL    HW1 1632   4.762   2.974   2.473 -0.9079 -1.3645  0.2451
  463SOL    HW2 1633   4.698   3.103   2.519  1.5614 -0.1728  0.4722
  464SOL     OW 1634   5.543   3.729   1.871 -0.0585  0.1483  0.0410
  464SOL    HW1 1635   5.580   3.765   1.951  1.9800 -0.2403 -0.6556
  464SOL    HW2 1636   5.558   3.634   1.878 -0.0584  0.0859 -0.6990
  465SOL     OW 1637   3.589   3.536   2.601  0.7012 -0.0581 -0.0146
  465SOL    HW1 1638   3.507   3.502   2.636 -0.0672  1.6350 -0.0970
  465SOL    HW2 1639   3.597   3.624   2.639  2.3273 -0.0739 -0.2522
  466SOL     OW 1640   5.159   2.034   2.386  0.5981  0.4201  0.3620
  466SOL    HW1 1641   5.182   2.033   2.479  1.4025 -0.2386  0.1652
  466SOL    HW2 1642   5.141   2.126   2.367  0.8440  0.6210  1.0669
  467SOL     OW 1643   6.561   4.787   2.760 -0.5873  0.2727  0.0696
  467SOL    HW1 1644   6.624   4.715   2.766 -0.4548  0.5032  1.8751
  467SOL    HW2 1645   6.497   4.757   2.695 -0.4212 -1.3915  0.6303
  468SOL     OW 1646   3.178   2.902   0.879 -0.4773  0.1718 -0.4753
  468SOL    HW1 1647   3.273   2.893   0.876 -0.4395  0.4685 -0.1248
  468SOL    HW2 1648   3.145   2.812   0.873 -0.1464 -0.0390  0.6785
  469SOL     OW 1649   3.564   1.853   1.186 -0.4401 -0.3821 -0.3097
  469SOL    HW1 1650   3.623   1.820   1.253 -0.5815 -1.1635 -0.5653
  469SOL    HW2 1651   3.501   1.782   1.172 -0.7301 -0.0185 -0.8870
  470SOL     OW 1652   3.234   5.418   1.532 -0.4750 -0.6366  0.3142
  470SOL    HW1 1653   3.316   5.463   1.512 -0.6713 -1.2868 -2.2609
  470SOL    HW2 1654   3.260   5.334   1.568  0.0970 -1.4360 -1.8296
  471SOL     OW 1655   2.767   1.350   0.821 -0.3053 -0.2769  0.1314
  471SOL    HW1 1656   2.747   1.319   0.909  1.3832  2.2969  1.5507
  471SOL    HW2 1657   2.722   1.434   0.814  1.0717  0.4245 -0.7242
  472SOL     OW 1658   2.406   4.884   3.073 -0.3022 -0.4926  0.4157
  472SOL    HW1 1659   2.333   4.932   3.112 -0.0566 -0.8207  1.2849
  472SOL    HW2 1660   2.460   4.857   3.147  1.3526  0.7598 -0.2680
  473SOL     OW 1661   5.154   2.645   2.136 -0.0031 -0.2192  0.1448
  473SOL    HW1 1662   5.123   2.619   2.049  0.1185  1.7317 -0.5272
  473SOL    HW2 1663   5.087   2.705   2.168 -0.2603 -1.2460  1.6225
  474SOL     OW 1664   3.667   1.274   0.299  0.3801 -0.0734 -0.1803
  474SOL    HW1 1665   3.640   1.217   0.227  0.3465  1.6479 -1.6149
  474SOL    HW2 1666   3.738   1.227   0.342  0.4319 -1.1414 -1.3770
  475SOL     OW 1667   2.286   5.642   2.015  0.0277  0.4274 -0.0938
  475SOL    HW1 1668   2.277   5.551   2.041 -0.6483 -0.0600 -1.8542
  475SOL    HW2 1669   2.325   5.639   1.927  0.0658  1.8296 -0.1584
  476SOL     OW 1670   3.883   2.967   2.076  0.3771 -0.2402  0.0740
  476SOL    HW1 1671   3.837   3.040   2.035 -0.2077  0.2197  1.4937
  476SOL    HW2 1672   3.930   2.925   2.004 -1.6325 -0.2537 -1.3104
  477SOL     OW 1673   6.766   6.825   2.890  0.3927  0.5681  0.3297
  477SOL    HW1 1674   6.774   6.898   2.952 -0.2062  0.4752  0.5224
  477SOL    HW2 1675   6.777   6.746   2.943  0.1365  0.4967  0.2811
  478SOL     OW 1676   4.772   3.403   1.097 -0.3163 -0.3175 -0.0236
  478SOL    HW1 1677   4.810   3.473   1.151 -1.4783  1.6328 -1.6125
  478SOL    HW2 1678   4.688   3.384   1.138 -0.9773  0.8162 -0.7850
  479SOL     OW 1679   6.952   5.021   3.174 -0.4364 -0.0570  0.3919
  479SOL    HW1 1680   6.892   4.972   3.230  0.8496 -1.5962  0.4764
  479SOL    HW2 1681   6.939   4.984   3.087  0.0093 -0.0129  0.3059
  480SOL     OW 1682   4.512   6.206   2.617  0.5588 -0.2031  0.2883
  480SOL    HW1 1683   4.468   6.125   2.592 -0.8912  0.9523 -1.1899
  480SOL    HW2 1684   4.591   6.208   2.563 -0.2758  0.1363 -0.9700
  481SOL     OW 1685   4.599   5.609   1.821 -0.0727 -0.0612  0.2846
  481SOL    HW1 1686   4.686   5.645   1.840  0.9817  0.0876 -3.9839
  481SOL    HW2 1687   4.558   5.674   1.764 -1.4945 -1.8188 -0.8057
  482SOL     OW 1688   3.719   5.795   1.911 -0.6833  0.3933 -0.1676
  482SOL    HW1 1689   3.689   5.715   1.867  0.1708 -0.1200  0.1529
  482SOL    HW2 1690   3.641   5.829   1.954 -0.6741 -1.4334  1.4656
  483SOL     OW 1691   4.220   2.433   2.114 -0.4091 -0.2025 -0.4634
  483SOL    HW1 1692   4.204   2.527   2.125 -2.0325 -0.6722  2.2400
  483SOL    HW2 1693   4.138   2.391   2.140  1.3002 -2.4642  1.8586
  484SOL     OW 1694   1.398   3.174   0.554  0.2543 -0.3323  0.8751
  484SOL    HW1 1695   1.322   3.229   0.570 -0.0432 -0.5115  0.1191
  484SOL    HW2 1696   1.403   3.118   0.632 -2.8016 -3.1016 -0.6872
  485SOL     OW 1697   4.963   4.951   3.103  0.1549  0.5095  0.2598
  485SOL    HW1 1698   4.894   5.009   3.135  0.8495  2.2714 -1.2668
  485SOL    HW2 1699   5.010   4.924   3.181 -1.7034 -0.0500  1.2574
  486SOL     OW 1700   4.650   2.442   1.055 -0.5177 -0.4419  0.2662
  486SOL    HW1 1701   4.589   2.369   1.045  0.6634 -1.5734  0.9890
  486SOL    HW2 1702   4.717   2.409   1.116 -0.8746  1.8540  2.0127
  487SOL     OW 1703   5.731   4.457   1.781 -0.0125  0.6186 -0.2844
  487SOL    HW1 1704   5.762   4.387   1.722 -2.2172 -1.7359  1.1744
  487SOL    HW2 1705   5.795   4.528   1.768  1.6671 -1.1465 -2.7599
  488SOL     OW 1706   2.003   1.333   1.595 -0.3029 -0.1304 -0.2224
  488SOL    HW1 1707   1.913   1.302   1.605  0.5321 -2.7847 -0.2696
  488SOL    HW2 1708   2.035   1.287   1.518  1.4593 -0.1040  0.4642
  489SOL     OW 1709   3.152   2.046   1.689 -0.0868 -0.3787 -0.1857
  489SOL    HW1 1710   3.147   2.142   1.687 -1.9203 -0.3355  2.0679
  489SOL    HW2 1711   3.143   2.020   1.597  2.8928  1.5940 -1.1781
  490SOL     OW 1712   5.365   3.420   0.892  0.0540  0.2571 -0.2925
  490SOL    HW1 1713   5.275   3.452   0.879  0.0298 -0.4336 -1.9748
  490SOL    HW2 1714   5.375   3.417   0.988 -1.4219  1.1305 -0.0757
  491SOL     OW 1715   3.230   1.183   0.254 -0.0859 -0.0701  0.5826
  491SOL    HW1 1716   3.322   1.193   0.277  0.1651 -1.0893  0.0696
  491SOL    HW2 1717   3.229   1.185   0.158 -0.5153 -0.6696  0.5705
  492SOL     OW 1718   3.214   5.359   0.944  0.1275 -1.0253 -0.3945
  492SOL    HW1 1719   3.241   5.272   0.972 -2.2442 -1.6422  0.1970
  492SOL    HW2 1720   3.121   5.350   0.923 -0.3862  1.5150  0.4389
  493SOL     OW 1721   3.902   5.219   2.726 -0.6974  0.2614  0.3080
  493SOL    HW1 1722   3.984   5.241   2.683 -1.0317 -0.0314 -0.4958
  493SOL    HW2 1723   3.856   5.303   2.734  0.1555  0.6349  1.8526
  494SOL     OW 1724   3.340   3.129   1.030  0.1043  0.6311  0.1426
  494SOL    HW1 1725   3.386   3.183   0.965  0.5483  3.7483  2.7851
  494SOL    HW2 1726   3.248   3.154   1.021  0.1397  0.9174  0.5738
  495SOL     OW 1727   3.762   4.926   1.627  0.2044  0.0124  0.3312
  495SOL    HW1 1728   3.668   4.906   1.621  0.7704 -2.9010 -0.0475
  495SOL    HW2 1729   3.776   4.993   1.559 -1.7433  1.4059  1.1840
  496SOL     OW 1730   4.455   5.475   1.989  0.5252  0.0273  0.5733
  496SOL    HW1 1731   4.437   5.546   2.051 -0.3209  0.2709  0.0559
  496SOL    HW2 1732   4.515   5.513   1.926  1.6805 -0.3264  1.4205
  497SOL     OW 1733   4.398   5.897   1.979  0.0719 -0.8472 -0.2699
  497SOL    HW1 1734   4.370   5.899   2.070  0.3416  1.3189 -0.1807
  497SOL    HW2 1735   4.344   5.829   1.939  0.0622 -1.9591  1.5143
  498SOL     OW 1736   2.392   1.959   0.298 -0.9158 -0.4885  0.2270
  498SOL    HW1 1737   2.349   1.951   0.214 -0.7523 -1.0359  0.1949
  498SOL    HW2 1738   2.348   1.896   0.355 -2.7079  1.5567  1.2836
  499SOL     OW 1739   1.650   3.264   1.967  0.3821 -0.3020 -0.3988
  499SOL    HW1 1740   1.731   3.246   2.015 -0.1428  0.7170  0.9374
  499SOL    HW2 1741   1.583   3.273   2.035 -0.9729 -1.5618 -1.5029
  500SOL     OW 1742   1.568   1.381   0.842 -0.0409  0.3288  0.5063
  500SOL    HW1 1743   1.598   1.330   0.918  1.3047 -0.5153 -0.5401
  500SOL    HW2 1744   1.536   1.463   0.879 -0.1210 -0.3602  2.0466
  501SOL     OW 1745   1.585   1.336   1.397 -0.4510  0.9013  0.4151
  501SOL    HW1 1746   1.565   1.320   1.305 -1.0470  0.2192  0.6585
  501SOL    HW2 1747   1.584   1.432   1.405  0.5695  1.0017 -0.4863
  502SOL     OW 1748   2.236   5.445   2.643  0.8385  0.1993  0.3992
  502SOL    HW1 1749   2.310   5.386   2.660  2.8865  1.4755 -3.0856
  502SOL    HW2 1750   2.260   5.526   2.688  0.7173  0.1247  0.6039
  503SOL     OW 1751   5.085   2.330   1.812 -0.0179  0.9909  0.1507
  503SOL    HW1 1752   5.148   2.314   1.741  0.7373  2.1167  0.5372
  503SOL    HW2 1753   5.023   2.258   1.805  0.9100  0.2301 -0.6941
  504SOL     OW 1754   2.201   2.545   1.752  0.3822 -0.3350  0.3949
  504SOL    HW1 1755   2.255   2.595   1.691  0.1807 -1.1221 -0.4574
  504SOL    HW2 1756   2.248   2.549   1.835  1.5053 -0.5994 -0.2062
  505SOL     OW 1757   1.420   4.675   1.074  0.2811 -0.2706  0.2279
  505SOL    HW1 1758   1.472   4.715   1.143  0.1922 -1.0853  0.7798
  505SOL    HW2 1759   1.484   4.640   1.012  0.3596  0.9294 -0.3997
  506SOL     OW 1760   5.640   4.012   2.406  0.3336 -0.4013 -0.4297
  506SOL    HW1 1761   5.646   4.084   2.344 -0.7981  0.4079  0.3621
  506SOL    HW2 1762   5.715   4.024   2.464  0.1277  0.1709 -0.2755
  507SOL     OW 1763   2.496   1.524   0.841 -0.1395 -0.7711 -0.3095
  507SOL    HW1 1764   2.518   1.502   0.750  2.0491  1.1726 -0.3353
  507SOL    HW2 1765   2.419   1.580   0.834  0.2984 -0.2462 -1.0101
  508SOL     OW 1766   5.050   6.596   2.629 -0.4416 -0.1302 -0.2206
  508SOL    HW1 1767   5.130   6.637   2.661  0.2049  0.4266 -2.3508
  508SOL    HW2 1768   4.981   6.659   2.651 -0.2242 -0.3008  1.0313
  509SOL     OW 1769   3.283   2.629   0.738 -0.1632  0.3466  0.2227
  509SOL    HW1 1770   3.318   2.551   0.781  0.5317 -0.2615 -1.3598
  509SOL    HW2 1771   3.360   2.679   0.711 -0.5603  0.6524 -0.3863
  510SOL     OW 1772   1.468   4.585   1.948  0.8690  0.4615 -0.0239
  510SOL    HW1 1773   1.383   4.577   1.991  0.4665  2.5114 -0.3102
  510SOL    HW2 1774   1.514   4.654   1.997  1.2285  1.3595 -1.5386
  511SOL     OW 1775   3.948   4.641   0.798  0.3821  0.1818 -0.0592
  511SOL    HW1 1776   4.006   4.614   0.869  0.6704 -2.4545 -1.1619
  511SOL    HW2 1777   3.994   4.613   0.718 -2.7130 -3.1856 -0.9582
  512SOL     OW 1778   3.410   5.789   1.729 -0.0966  0.1909 -0.0679
  512SOL    HW1 1779   3.415   5.704   1.771  0.9290 -0.1670 -0.8793
  512SOL    HW2 1780   3.389   5.770   1.637 -1.0717  0.8855 -0.0039
  513SOL     OW 1781   5.104   4.666   1.022  0.2729  0.2379 -0.1950
  513SOL    HW1 1782   5.030   4.627   0.975  1.1002  0.5251 -1.8061
  513SOL    HW2 1783   5.146   4.723   0.957  0.5562  1.9047  1.3488
  514SOL     OW 1784   1.722   4.603   1.649 -0.4369 -0.6410 -0.4629
  514SOL    HW1 1785   1.674   4.521   1.654 -0.0924 -0.7877  0.6989
  514SOL    HW2 1786   1.674   4.663   1.706  0.2527 -0.5310  0.0127
  515SOL     OW 1787   5.246   5.003   2.829 -0.3081 -0.3805 -0.3111
  515SOL    HW1 1788   5.333   5.034   2.803  0.1687 -1.0137  0.4924
  515SOL    HW2 1789   5.249   5.002   2.925 -1.9046  1.6044 -0.1641
  516SOL     OW 1790   5.239   2.016   2.656 -0.1496 -0.1274 -0.1595
  516SOL    HW1 1791   5.158   2.038   2.703 -0.6050 -0.2738 -0.8516
  516SOL    HW2 1792   5.300   2.087   2.678 -0.6324  0.2537 -0.0290
  517SOL     OW 1793   5.422   6.205   2.294 -0.3026  0.0514 -0.3524
  517SOL    HW1 1794   5.496   6.229   2.350 -1.2375  2.8691 -0.1633
  517SOL    HW2 1795   5.397   6.287   2.251 -1.4200 -1.4367 -2.7798
  518SOL     OW 1796   1.929   1.007   0.752  0.0306 -0.6654  0.1126
  518SOL    HW1 1797   2.010   1.011   0.702 -0.1455  0.2682 -0.1260
  518SOL    HW2 1798   1.870   1.068   0.707  0.1321  0.8503  1.8800
  519SOL     OW 1799   3.967   5.973   3.143  0.1830 -0.2838 -0.1934
  519SOL    HW1 1800   3.894   5.935   3.192 -0.0171  0.1654 -0.1378
  519SOL    HW2 1801   4.025   6.008   3.210  0.1289 -0.0665 -0.2583
  520SOL     OW 1802   1.747   3.803   0.310  0.1260 -0.2607  0.2180
  520SOL    HW1 1803   1.655   3.802   0.286  0.2510 -0.7893 -0.2634
  520SOL    HW2 1804   1.754   3.741   0.382 -0.0320  0.3892  0.7990
  521SOL     OW 1805   1.203   0.815   0.695 -0.1181  0.2158 -0.3350
  521SOL    HW1 1806   1.147   0.815   0.772 -0.8811  1.4545 -0.8537
  521SOL    HW2 1807   1.260   0.739   0.707  0.4139  0.8777  1.8981
  522SOL     OW 1808   4.397   0.490   0.653 -0.6586 -0.1599 -0.3893
  522SOL    HW1 1809   4.310   0.529   0.659 -0.3630  0.2890  2.6540
  522SOL    HW2 1810   4.457   0.562   0.674  0.2403 -1.0860  0.2936
  523SOL     OW 1811   1.865   3.276   2.517 -0.5312  0.1168 -0.4583
  523SOL    HW1 1812   1.779   3.234   2.505  0.1112 -1.5363  0.4403
  523SOL    HW2 1813   1.888   3.258   2.607  0.5664  0.9841 -0.5457
  524SOL     OW 1814   4.949   2.106   1.122  0.6259  0.3445  0.2214
  524SOL    HW1 1815   4.908   2.050   1.187  0.7603  0.2120  0.1917
  524SOL    HW2 1816   4.941   2.194   1.158  0.4893  0.2980  0.3068
  525SOL     OW 1817   5.042   6.139   3.296  0.2609  0.4686 -0.2740
  525SOL    HW1 1818   5.037   6.128   3.201 -0.0016 -0.7850 -0.1302
  525SOL    HW2 1819   5.018   6.231   3.311 -1.4089  0.2343 -1.2778
  526SOL     OW 1820   4.278   2.712   0.649  0.8288  0.8436 -0.6243
  526SOL    HW1 1821   4.206   2.670   0.696  0.5619  1.8690 -0.0822
  526SOL    HW2 1822   4.269   2.805   0.670  1.3204  1.1948 -1.9002
  527SOL     OW 1823   2.871   1.049   0.837  0.3835  0.0411 -0.0808
  527SOL    HW1 1824   2.917   0.970   0.808  0.5619 -0.0225  0.3784
  527SOL    HW2 1825   2.915   1.120   0.789  1.6522  0.0976  1.1072
  528SOL     OW 1826   4.609   1.698   2.256 -0.1117  0.2470  0.0806
  528SOL    HW1 1827   4.549   1.675   2.184  0.7252  1.0069 -0.8966
  528SOL    HW2 1828   4.601   1.794   2.263  0.1922  0.2295  0.6581
  529SOL     OW 1829   2.743   2.791   3.284 -0.1559  0.2198  0.1261
  529SOL    HW1 1830   2.681   2.864   3.290 -0.4472  0.1014 -1.1594
  529SOL    HW2 1831   2.754   2.762   3.374 -2.2177  0.0703  0.3934
  530SOL     OW 1832   2.857   2.787   0.893  0.1376  0.8492 -0.3678
  530SOL    HW1 1833   2.883   2.707   0.848  0.0054  1.7787 -2.2009
  530SOL    HW2 1834   2.854   2.763   0.986  1.2178 -0.9449 -0.7508
  531SOL     OW 1835   1.275   4.164   1.596  0.0151  0.2633 -0.1930
  531SOL    HW1 1836   1.209   4.219   1.554 -0.4626 -1.1304 -1.3412
  531SOL    HW2 1837   1.228   4.122   1.668 -0.6127 -1.2600 -1.4258
  532SOL     OW 1838   2.527   1.719   1.672  0.1526 -0.4757 -0.0111
  532SOL    HW1 1839   2.442   1.688   1.642 -0.2840 -0.3968  1.1042
  532SOL    HW2 1840   2.562   1.647   1.725  1.0021 -0.6995 -0.8521
  533SOL     OW 1841   4.031   5.002   2.357  0.5625 -0.1172 -0.3143
  533SOL    HW1 1842   4.105   4.983   2.415  1.3409  0.2759 -1.1365
  533SOL    HW2 1843   4.035   5.097   2.345  0.9041 -0.2747 -1.6106
  534SOL     OW 1844   1.899   0.340   0.164  0.1361 -0.1095  0.4542
  534SOL    HW1 1845   1.921   0.266   0.220 -1.9675 -0.3820  1.0061
  534SOL    HW2 1846   1.920   0.417   0.216  0.6424 -0.3372  0.5886
  535SOL     OW 1847   2.557   4.618   0.118 -0.2343 -0.2918 -0.7635
  535SOL    HW1 1848   2.607   4.657   0.046 -0.6129 -1.0266 -1.4446
  535SOL    HW2 1849   2.466   4.634   0.096 -0.3328  0.2802  0.0314
  536SOL     OW 1850   5.035   6.378   3.020 -0.1069  0.1509  0.2626
  536SOL    HW1 1851   5.052   6.452   2.962  1.9213 -0.4797 -0.0006
  536SOL    HW2 1852   5.070   6.302   2.974 -0.5887 -0.7328  1.2958
  537SOL     OW 1853   3.890   4.650   3.055  0.0457  0.0822  0.2060
  537SOL    HW1 1854   3.974   4.690   3.077 -0.1323 -0.0264  1.1153
  537SOL    HW2 1855   3.825   4.709   3.093 -0.2854  0.0348 -0.2776
  538SOL     OW 1856   3.419   5.389   1.231 -0.3549  0.4813 -0.5168
  538SOL    HW1 1857   3.379   5.323   1.288 -0.2436  0.2781 -0.6743
  538SOL    HW2 1858   3.349   5.453   1.215 -0.5757  0.2008 -0.6760
  539SOL     OW 1859   4.620   3.189   1.388 -0.1215 -0.1717  0.1162
  539SOL    HW1 1860   4.550   3.243   1.350  0.3942  0.3416 -0.1329
  539SOL    HW2 1861   4.582   3.102   1.396 -1.4526  0.5141  1.8196
  540SOL     OW 1862   0.792   2.667   0.273 -0.0328  0.0389 -0.1898
  540SOL    HW1 1863   0.808   2.646   0.181  0.0267  0.7784 -0.3561
  540SOL    HW2 1864   0.822   2.590   0.321  1.5265  0.3105 -0.6774
  541SOL     OW 1865   0.803   3.386   0.432 -0.2912  0.0775  0.0935
  541SOL    HW1 1866   0.798   3.393   0.337  1.6914  1.9865  0.0648
  541SOL    HW2 1867   0.728   3.437   0.464 -1.4053 -1.1915 -0.4018
  542SOL     OW 1868   5.160   0.908   1.221  0.3398 -0.1178 -0.6667
  542SOL    HW1 1869   5.244   0.950   1.237  1.5776 -2.1458 -1.4751
  542SOL    HW2 1870   5.097   0.962   1.268  2.0473  1.5748 -0.2036
  543SOL     OW 1871   3.042   3.615   0.466  0.2050 -0.1579 -0.2159
  543SOL    HW1 1872   3.057   3.667   0.387 -1.7966  0.0871 -0.4763
  543SOL    HW2 1873   3.099   3.538   0.455  0.6283  0.3069 -1.4528
  544SOL     OW 1874   2.334   2.917   2.665  0.6829 -0.0563 -0.1677
  544SOL    HW1 1875   2.305   2.841   2.616 -1.9205  0.1680  0.8399
  544SOL    HW2 1876   2.350   2.984   2.599  1.6760 -1.0362 -0.9620
  545SOL     OW 1877   2.106   1.504   1.834 -0.0154 -0.6292 -0.1426
  545SOL    HW1 1878   2.103   1.515   1.739  0.0716  0.3167 -0.0436
  545SOL    HW2 1879   2.200   1.507   1.855 -0.0084 -1.2243 -0.0619
  546SOL     OW 1880   3.406   4.855   1.116 -0.3187  0.3834  0.2609
  546SOL    HW1 1881   3.493   4.869   1.080 -0.5537 -2.1468 -1.5636
  546SOL    HW2 1882   3.422   4.815   1.202  0.2596  1.5648  0.7276
  547SOL     OW 1883   0.541   2.896   0.653  0.1674  0.4712 -0.6092
  547SOL    HW1 1884   0.498   2.974   0.687  0.1079 -0.6661  2.2323
  547SOL    HW2 1885   0.531   2.831   0.723  3.2092 -1.0078 -1.3549
  548SOL     OW 1886   1.128   1.769   0.904  0.3836  0.1268  0.5162
  548SOL    HW1 1887   1.107   1.769   0.997  0.0883  0.3668  0.4509
  548SOL    HW2 1888   1.157   1.680   0.886 -0.2839 -0.1287  0.6760
  549SOL     OW 1889   5.542   5.938   2.262 -0.0673  0.2470  0.4374
  549SOL    HW1 1890   5.492   6.020   2.254  1.4010  1.3046  1.5892
  549SOL    HW2 1891   5.588   5.930   2.179 -0.3050  0.5341  0.2737
  550SOL     OW 1892   2.748   2.253   2.852 -0.3424 -0.1381 -0.4773
  550SOL    HW1 1893   2.747   2.349   2.843  0.4481 -0.0937 -0.1559
  550SOL    HW2 1894   2.656   2.228   2.851 -0.5434  0.5834 -1.0369
  551SOL     OW 1895   4.444   2.460   1.946 -0.0594  0.2929 -0.3800
  551SOL    HW1 1896   4.390   2.435   2.021  1.0299 -0.6568  0.1220
  551SOL    HW2 1897   4.483   2.378   1.917  1.1594  0.9633 -0.6807
  552SOL     OW 1898   4.656   5.237   2.307 -0.0941 -0.3740 -0.4798
  552SOL    HW1 1899   4.577   5.187   2.290  0.1278 -0.6385 -0.7540
  552SOL    HW2 1900   4.704   5.234   2.224  0.2627 -0.3274 -0.2774
  553SOL     OW 1901   5.163   2.913   0.932  0.2070  0.3455  0.0262
  553SOL    HW1 1902   5.080   2.948   0.899  0.0378 -0.4252 -0.3882
  553SOL    HW2 1903   5.172   2.827   0.890  0.8969  0.1364  0.5720
  554SOL     OW 1904   3.022   2.561   0.775 -0.6542  0.7412 -0.3189
  554SOL    HW1 1905   3.005   2.472   0.806  0.5069  1.3101  2.2459
  554SOL    HW2 1906   3.114   2.560   0.747  0.1500  1.6301  2.0551
  555SOL     OW 1907   4.920   3.998   2.245 -0.6221  0.0367 -0.3673
  555SOL    HW1 1908   4.944   3.987   2.337  0.9786  1.6241 -0.5408
  555SOL    HW2 1909   4.986   3.947   2.197 -0.9839 -0.1450 -0.6832
  556SOL     OW 1910   6.763   3.149   2.763 -0.1921  0.3162 -0.2000
  556SOL    HW1 1911   6.695   3.149   2.829  0.0429  0.1260  0.0434
  556SOL    HW2 1912   6.782   3.056   2.748  1.2226  0.3905  0.9839
  557SOL     OW 1913   5.083   1.546   1.045  0.1716  0.1464 -0.9287
  557SOL    HW1 1914   5.068   1.641   1.042 -1.2193 -0.0668 -2.7869
  557SOL    HW2 1915   5.169   1.534   1.004  1.1573  0.6822  0.8715
  558SOL     OW 1916   5.021   1.299   1.701  0.0979 -0.3397  0.4557
  558SOL    HW1 1917   4.940   1.339   1.732 -0.5214 -2.3552  1.6751
  558SOL    HW2 1918   5.067   1.369   1.656 -1.8099  1.1580  0.6958
  559SOL     OW 1919   3.546   3.348   1.973  0.8070  0.5217  0.1587
  559SOL    HW1 1920   3.577   3.354   1.883 -0.1455 -1.2835 -0.3344
  559SOL    HW2 1921   3.541   3.254   1.991 -0.9978  0.7981  1.3703
  560SOL     OW 1922   4.907   4.834   2.154  0.1031 -0.2105  0.5453
  560SOL    HW1 1923   4.923   4.774   2.081 -0.7799 -1.2897  1.2096
  560SOL    HW2 1924   4.843   4.897   2.120  1.8974  1.1351 -0.5353
  561SOL     OW 1925   3.132   5.033   2.309 -0.0790 -0.7311 -0.3012
  561SOL    HW1 1926   3.117   5.016   2.216  0.1243  0.0883 -0.4909
  561SOL    HW2 1927   3.213   5.085   2.311  0.0982 -1.0271  0.3550
  562SOL     OW 1928   3.154   2.368   2.930 -0.3095  0.2921  0.3149
  562SOL    HW1 1929   3.117   2.452   2.957  1.0565  0.7624  0.8184
  562SOL    HW2 1930   3.230   2.391   2.877 -0.4465 -0.6414 -0.3228
  563SOL     OW 1931   3.306   3.888   2.178 -0.0434 -0.0863  0.2578
  563SOL    HW1 1932   3.351   3.875   2.095  0.8417  0.2405  0.6796
  563SOL    HW2 1933   3.254   3.808   2.190 -1.1473  0.3721 -1.1805
  564SOL     OW 1934   4.411   3.443   2.756 -0.3805  0.0524  0.6304
  564SOL    HW1 1935   4.447   3.401   2.678 -0.9717 -0.7086  0.7514
  564SOL    HW2 1936   4.326   3.401   2.768 -0.6231  0.7093  1.2452
  565SOL     OW 1937   3.178   1.987   1.106 -0.2909  0.7841  0.0517
  565SOL    HW1 1938   3.164   1.900   1.068 -0.1375  1.0712 -0.6834
  565SOL    HW2 1939   3.237   1.972   1.179  0.3601  0.3586 -0.5492
  566SOL     OW 1940   1.959   1.786   1.011  0.7739 -0.8078 -0.2190
  566SOL    HW1 1941   2.034   1.766   0.956  0.9019  1.0942 -0.8295
  566SOL    HW2 1942   1.897   1.830   0.952 -0.3764 -1.3877  0.5102
  567SOL     OW 1943   2.965   4.748   0.394 -0.3589  0.4215 -0.5851
  567SOL    HW1 1944   2.987   4.791   0.311  0.2064  0.6486 -0.3194
  567SOL    HW2 1945   3.019   4.792   0.459 -1.9751  1.3551  0.1805
  568SOL     OW 1946   2.734   4.112   0.256  0.4492 -0.2955 -0.0005
  568SOL    HW1 1947   2.699   4.200   0.247  0.3145 -0.4788 -1.7791
  568SOL    HW2 1948   2.829   4.123   0.246  0.5072 -0.2829  0.5237
  569SOL     OW 1949   3.608   5.583   1.284 -0.2410 -0.1373  0.1905
  569SOL    HW1 1950   3.543   5.515   1.263 -0.2048 -1.0693  2.7888
  569SOL    HW2 1951   3.572   5.629   1.359  1.4344  0.2780  0.7823
  570SOL     OW 1952   5.542   2.676   1.411 -0.4734 -0.2613 -0.0132
  570SOL    HW1 1953   5.498   2.598   1.443 -0.4785 -0.2271  0.0640
  570SOL    HW2 1954   5.473   2.728   1.370 -0.5544 -0.0812  0.3501
  571SOL     OW 1955   5.506   4.246   3.131  0.0734 -0.2069 -0.8687
  571SOL    HW1 1956   5.542   4.310   3.192 -1.6751  0.3291 -0.3286
  571SOL    HW2 1957   5.466   4.179   3.186  0.0581 -0.6767 -1.4347
  572SOL     OW 1958   3.082   2.438   2.613 -0.1425 -0.5185  0.6687
  572SOL    HW1 1959   2.993   2.447   2.579  0.3620 -0.9234 -0.8686
  572SOL    HW2 1960   3.094   2.343   2.624  0.6439 -0.6341 -0.8318
  573SOL     OW 1961   4.399   4.492   1.793  0.3125  0.2360  0.4336
  573SOL    HW1 1962   4.397   4.504   1.698 -1.9282  0.3004  0.4328
  573SOL    HW2 1963   4.430   4.403   1.806  1.0029  0.3544 -0.3330
  574SOL     OW 1964   1.217   1.707   0.001 -0.4135  0.7710  0.2539
  574SOL    HW1 1965   1.168   1.785   0.026  0.7958  1.4556  0.5387
  574SOL    HW2 1966   1.269   1.686   0.078  0.4666  0.6211 -0.3693
  575SOL     OW 1967   2.512   2.815   1.195  0.4001 -0.1941 -0.0010
  575SOL    HW1 1968   2.439   2.812   1.133  0.5971 -1.7287 -0.1872
  575SOL    HW2 1969   2.555   2.899   1.177 -0.0604 -0.2177 -1.3424
  576SOL     OW 1970   2.075   2.619   1.269 -0.3250  0.1732 -0.0159
  576SOL    HW1 1971   2.113   2.554   1.209  1.3219  0.6558  0.4582
  576SOL    HW2 1972   2.004   2.659   1.218 -0.5087 -1.0699 -0.7848
  577SOL     OW 1973   6.188   5.155   2.229 -0.3856  0.3522 -0.1049
  577SOL    HW1 1974   6.195   5.228   2.167  0.6539  0.9881  0.7272
  577SOL    HW2 1975   6.215   5.192   2.313  2.2534 -1.4601 -0.0186
  578SOL     OW 1976   4.101   2.530   2.917  0.3831  0.7222  0.0969
  578SOL    HW1 1977   4.173   2.500   2.860 -1.1556 -0.5347 -1.3141
  578SOL    HW2 1978   4.101   2.625   2.909  2.0176  0.7612  0.3173
  579SOL     OW 1979   0.280   2.807   0.452 -0.6158 -0.2582  0.6162
  579SOL    HW1 1980   0.242   2.752   0.383 -0.0770  0.3107 -0.1497
  579SOL    HW2 1981   0.372   2.817   0.427 -0.3195 -0.3466  1.6212
  580SOL     OW 1982   1.992   3.541   2.813  0.2072  0.7342 -0.7326
  580SOL    HW1 1983   2.085   3.556   2.831  0.4445 -1.5621  0.3226
  580SOL    HW2 1984   1.985   3.543   2.718  1.2930  1.0925 -0.8185
  581SOL     OW 1985   6.323   3.231   2.571 -0.0773 -0.2098 -0.2453
  581SOL    HW1 1986   6.339   3.141   2.601 -0.6449  0.2435  1.5603
  581SOL    HW2 1987   6.228   3.234   2.558  0.0156 -0.0276 -0.9140
  582SOL     OW 1988   1.690   4.752   0.497  0.1021  0.6180  0.6556
  582SOL    HW1 1989   1.696   4.754   0.402 -0.3711 -0.9761  0.5674
  582SOL    HW2 1990   1.757   4.814   0.527  1.8103 -0.5030 -0.6727
  583SOL     OW 1991   6.168   2.035   2.679 -0.2319 -0.1545  0.0603
  583SOL    HW1 1992   6.172   2.032   2.775  0.4405  3.6941  0.2859
  583SOL    HW2 1993   6.078   2.064   2.660  0.5034  2.1198 -0.2232
  584SOL     OW 1994   5.585   1.764   1.150  0.4891  0.5603 -0.7827
  584SOL    HW1 1995   5.680   1.771   1.161  0.4093  0.5779 -0.0633
  584SOL    HW2 1996   5.560   1.692   1.209  0.2027 -0.2031 -1.8064
  585SOL     OW 1997   2.231   0.915   0.934  0.8373 -0.4391  0.5822
  585SOL    HW1 1998   2.210   1.005   0.907  1.8237 -0.3893 -0.1027
  585SOL    HW2 1999   2.146   0.876   0.954  0.0225 -0.2568 -2.0192
  586SOL     OW 2000   3.351   6.723   3.186  0.9173 -0.2703  0.1115
  586SOL    HW1 2001   3.312   6.691   3.267 -0.1191  0.3595 -0.1161
  586SOL    HW2 2002   3.290   6.791   3.155  1.5936 -0.0910 -0.8822
  587SOL     OW 2003   4.837   2.421   2.209  0.1835  0.4800 -0.2471
  587SOL    HW1 2004   4.760   2.447   2.259  0.6454  0.7006  0.3712
  587SOL    HW2 2005   4.810   2.424   2.118 -0.1627  1.7986 -0.1111
  588SOL     OW 2006   5.768   2.969   2.810 -0.2885  0.0972 -0.4954
  588SOL    HW1 2007   5.704   3.003   2.748 -0.9247 -0.5844 -0.2325
  588SOL    HW2 2008   5.852   2.997   2.776 -0.6530  0.0531 -1.4674
  589SOL     OW 2009   5.114   3.938   1.809  0.0319  0.8079 -0.0373
  589SOL    HW1 2010   5.158   4.005   1.757  0.0339  1.4040  0.7226
  589SOL    HW2 2011   5.033   3.980   1.839  0.5618  0.8752  1.3741
  590SOL     OW 2012   2.504   2.764   0.486 -0.3334 -0.0963 -0.1013
  590SOL    HW1 2013   2.529   2.686   0.437  1.0624 -0.1037  0.5577
  590SOL    HW2 2014   2.570   2.771   0.555 -0.1689  1.9076 -0.4016
  591SOL     OW 2015   2.747   5.143   1.367  0.5019 -0.9706  0.1840
  591SOL    HW1 2016   2.813   5.134   1.299 -0.2232 -0.8795 -0.5572
  591SOL    HW2 2017   2.681   5.077   1.345 -1.1570  0.9162 -0.9216
  592SOL     OW 2018   1.031   2.122   1.388  0.0756  0.9214 -0.0408
  592SOL    HW1 2019   0.953   2.164   1.424 -0.0675  0.5142  0.1291
  592SOL    HW2 2020   1.047   2.168   1.305 -1.8665 -0.6627 -1.4017
  593SOL     OW 2021   4.987   3.559   2.896 -0.2427  0.2340  0.3923
  593SOL    HW1 2022   4.985   3.628   2.829 -1.4449 -1.4346 -1.3984
  593SOL    HW2 2023   5.077   3.527   2.895 -0.2205  0.2976 -0.3785
  594SOL     OW 2024   1.702   1.192   0.092  0.1130  0.0428  0.1000
  594SOL    HW1 2025   1.705   1.103   0.057 -2.3954  0.0406 -0.3096
  594SOL    HW2 2026   1.624   1.193   0.148 -1.5468  2.6195 -1.9827
  595SOL     OW 2027   2.288   4.904   0.427 -0.1269 -0.2446 -0.7100
  595SOL    HW1 2028   2.364   4.951   0.461  0.1902 -0.6583 -0.8359
  595SOL    HW2 2029   2.298   4.815   0.460 -1.4569  0.0736  0.7024
  596SOL     OW 2030   4.857   3.009   0.785  0.2472  0.7314  0.0871
  596SOL    HW1 2031   4.881   3.053   0.866  1.2043 -0.4388  0.4552
  596SOL    HW2 2032   4.825   3.080   0.728  1.9964  1.9548  0.5560
  597SOL     OW 2033   2.220   1.235   1.698  0.1469  0.0745  1.3110
  597SOL    HW1 2034   2.145   1.268   1.650  0.3577  0.9163  1.5458
  597SOL    HW2 2035   2.227   1.143   1.672  0.0995  0.4427 -0.0520
  598SOL     OW 2036   6.135   2.679   2.413  0.1665  0.0406  0.2889
  598SOL    HW1 2037   6.097   2.605   2.366  0.5318  0.2348 -0.3290
  598SOL    HW2 2038   6.106   2.756   2.364 -3.9031  0.7643  3.3455
  599SOL     OW 2039   5.130   0.741   0.782  0.0555 -0.3915 -0.1622
  599SOL    HW1 2040   5.205   0.708   0.732 -0.7478 -0.2577 -1.4752
  599SOL    HW2 2041   5.081   0.794   0.720 -1.3936 -0.8510  0.5594
  600SOL     OW 2042   3.493   4.643   2.412  0.3827 -0.0727 -0.2801
  600SOL    HW1 2043   3.537   4.611   2.491  0.6873 -0.8658 -0.7517
  600SOL    HW2 2044   3.535   4.726   2.393  0.0219  0.3322  0.6179
  601SOL     OW 2045   5.018   2.613   2.791  0.0008 -0.1184  0.0968
  601SOL    HW1 2046   5.028   2.568   2.708 -1.7667 -2.1437  0.8938
  601SOL    HW2 2047   5.059   2.555   2.856 -0.7707  0.2297  0.9252
  602SOL     OW 2048   4.005   3.070   0.493  0.4307 -0.5933  0.0123
  602SOL    HW1 2049   3.946   3.000   0.519  0.0370 -0.2372  0.0905
  602SOL    HW2 2050   3.986   3.084   0.400 -0.5793  0.4368  0.3560
  603SOL     OW 2051   4.724   2.572   1.487 -0.0013 -0.0628  0.1964
  603SOL    HW1 2052   4.728   2.667   1.500 -0.8512 -0.1130  0.9235
  603SOL    HW2 2053   4.637   2.556   1.450  0.1393 -0.5607  0.0655
  604SOL     OW 2054   2.425   3.352   1.219  0.3498  0.1958  0.3905
  604SOL    HW1 2055   2.356   3.325   1.159  0.3918 -1.0521  0.8735
  604SOL    HW2 2056   2.487   3.401   1.164  0.4028 -0.9377 -0.6135
  605SOL     OW 2057   4.520   2.111   2.691  0.1069  0.7164 -0.8750
  605SOL    HW1 2058   4.510   2.134   2.784  0.2678  0.3746 -0.7722
  605SOL    HW2 2059   4.505   2.016   2.688 -0.2475  0.7801 -1.2521
  606SOL     OW 2060   5.393   5.626   3.106  0.1319 -0.0033 -0.0447
  606SOL    HW1 2061   5.361   5.657   3.021  2.1131 -1.6704 -1.5211
  606SOL    HW2 2062   5.443   5.547   3.085 -0.7739 -1.5160  2.9282
  607SOL     OW 2063   1.133   3.308   1.194 -0.4409  0.5304 -0.2794
  607SOL    HW1 2064   1.150   3.401   1.183 -0.8716  0.5814 -0.5536
  607SOL    HW2 2065   1.046   3.303   1.233 -1.1477  0.2189 -1.8122
  608SOL     OW 2066   1.312   3.213   0.996  0.3736  1.0032  0.4706
  608SOL    HW1 2067   1.346   3.123   0.996 -1.2831  0.3338 -0.6195
  608SOL    HW2 2068   1.237   3.211   1.054  1.4106  2.1904  1.9320
  609SOL     OW 2069   3.718   1.732   2.028 -0.3099  0.2746 -0.5941
  609SOL    HW1 2070   3.783   1.662   2.030 -1.5318 -0.8924 -0.3573
  609SOL    HW2 2071   3.645   1.699   2.080 -0.1506  2.5344  1.2237
  610SOL     OW 2072   5.422   4.666   3.253  0.6092 -0.3520 -0.4317
  610SOL    HW1 2073   5.350   4.660   3.189 -0.8171  0.7738  0.9753
  610SOL    HW2 2074   5.414   4.754   3.289  2.1801 -0.5268  0.4044
  611SOL     OW 2075   3.856   1.331   1.500  0.2357 -0.2242  0.2905
  611SOL    HW1 2076   3.892   1.402   1.554 -1.8237  1.2170 -0.1077
  611SOL    HW2 2077   3.779   1.301   1.549 -0.8483  0.1471 -1.1037
  612SOL     OW 2078   3.501   3.023   1.920 -0.3014 -0.5549 -0.7762
  612SOL    HW1 2079   3.476   2.966   1.848 -0.9886 -0.5882 -0.5193
  612SOL    HW2 2080   3.419   3.061   1.951 -0.5685 -3.2514  2.3097
  613SOL     OW 2081   2.306   5.328   2.107 -0.4301  0.1793 -0.5457
  613SOL    HW1 2082   2.389   5.280   2.106 -0.6337 -0.1949  0.0057
  613SOL    HW2 2083   2.260   5.298   2.028 -0.3714 -0.2024 -0.4348
  614SOL     OW 2084   6.083   4.129   2.377  0.4656 -0.0722  0.2098
  614SOL    HW1 2085   6.044   4.174   2.302  1.8089  1.0217  0.1337
  614SOL    HW2 2086   6.122   4.049   2.340 -1.2760 -0.9842  0.2279
  615SOL     OW 2087   4.686   2.927   1.779  0.0225  0.0758  0.0072
  615SOL    HW1 2088   4.632   2.854   1.748  0.8740 -1.2602  1.5060
  615SOL    HW2 2089   4.626   2.980   1.831 -0.0759 -0.9686  1.0075
  616SOL     OW 2090   5.049   2.153   2.764 -0.3354 -0.1173  0.0693
  616SOL    HW1 2091   4.956   2.147   2.744  0.1523 -3.2078 -1.8893
  616SOL    HW2 2092   5.052   2.193   2.851 -3.6230 -1.5812  1.0273
  617SOL     OW 2093   2.813   5.342   3.121  0.6565  0.1515 -0.2181
  617SOL    HW1 2094   2.774   5.261   3.089 -1.2349  0.1898  1.7351
  617SOL    HW2 2095   2.859   5.316   3.201  2.4700  0.5832 -1.0714
  618SOL     OW 2096   5.733   5.080   2.205 -0.2279 -0.0341  0.5941
  618SOL    HW1 2097   5.682   5.161   2.195 -0.6760 -0.2437  1.1297
  618SOL    HW2 2098   5.773   5.087   2.291 -0.1075 -0.2969  0.5605
  619SOL     OW 2099   6.620   2.851   3.219 -0.1656  0.7419 -0.0445
  619SOL    HW1 2100   6.600   2.762   3.247 -1.5463  0.5832 -1.4027
  619SOL    HW2 2101   6.713   2.850   3.197 -0.0233 -0.1758  0.5524
  620SOL     OW 2102   4.290   3.163   2.983  0.6011  0.2014  0.3722
  620SOL    HW1 2103   4.283   3.118   2.899 -0.3546 -0.5941  0.8562
  620SOL    HW2 2104   4.286   3.093   3.049  0.0447  0.9046  1.1127
  621SOL     OW 2105   6.799   6.575   3.019  0.2342  0.4018 -0.1535
  621SOL    HW1 2106   6.755   6.490   3.028 -0.9596  1.2229  3.5140
  621SOL    HW2 2107   6.860   6.579   3.092 -0.9033  3.2686  0.8068
  622SOL     OW 2108   2.013   5.097   1.721 -0.0725 -0.4059 -0.1289
  622SOL    HW1 2109   1.948   5.166   1.711  1.2655  1.2520  1.6406
  622SOL    HW2 2110   1.967   5.025   1.763 -0.7825  0.7859  1.2170
  623SOL     OW 2111   1.751   2.450   0.359 -0.2035 -0.2093  0.1299
  623SOL    HW1 2112   1.661   2.422   0.376 -0.2035 -1.0854 -1.1592
  623SOL    HW2 2113   1.751   2.475   0.266 -0.0521  3.6245  0.9820
  624SOL     OW 2114   4.869   2.200   0.553  0.0045  0.1669  0.0721
  624SOL    HW1 2115   4.883   2.121   0.605 -0.3435 -1.2963 -1.9157
  624SOL    HW2 2116   4.776   2.221   0.566 -0.4613 -1.0507 -0.9805
  625SOL     OW 2117   4.810   2.361   1.252 -0.0615  0.2963 -0.1249
  625SOL    HW1 2118   4.834   2.303   1.324  1.5612 -0.9767 -1.6026
  625SOL    HW2 2119   4.852   2.444   1.273 -0.8887  0.4353  1.1093
  626SOL     OW 2120   4.264   1.009   0.309  0.7318 -0.4466 -0.1165
  626SOL    HW1 2121   4.196   0.966   0.361  0.0320 -0.7441 -1.2349
  626SOL    HW2 2122   4.334   0.945   0.302  0.8888 -0.3518  0.5671
  627SOL     OW 2123   2.118   4.518   1.960 -0.3621 -0.3060  0.5435
  627SOL    HW1 2124   2.099   4.612   1.951 -0.6867 -0.3348  0.8980
  627SOL    HW2 2125   2.032   4.478   1.977 -0.6543 -1.0065 -2.1009
  628SOL     OW 2126   3.770   5.360   2.119 -0.1729  0.3883  0.0200
  628SOL    HW1 2127   3.734   5.311   2.045 -0.1326  0.2238  0.1098
  628SOL    HW2 2128   3.715   5.438   2.125 -0.4361  0.1978  0.0781
  629SOL     OW 2129   4.576   3.676   0.522  0.6082  0.5852  0.1464
  629SOL    HW1 2130   4.576   3.671   0.618  0.2340  2.2252  0.2493
  629SOL    HW2 2131   4.668   3.678   0.498  0.8515 -2.7712  0.2195
  630SOL     OW 2132   3.497   4.799   1.805 -0.4288  0.4336 -0.4105
  630SOL    HW1 2133   3.512   4.771   1.714 -0.5237  0.4439 -0.4292
  630SOL    HW2 2134   3.567   4.756   1.855  1.4497  2.7348 -0.8978
  631SOL     OW 2135   4.150   1.934   1.089 -0.0342  0.3593  0.5062
  631SOL    HW1 2136   4.160   1.983   1.007  1.2812  1.1274  1.0872
  631SOL    HW2 2137   4.156   1.842   1.063 -0.4984  0.5613 -0.3625
  632SOL     OW 2138   4.489   2.976   2.095 -0.1540  0.5784  0.3358
  632SOL    HW1 2139   4.460   3.005   2.009 -0.4042 -0.4152  0.0729
  632SOL    HW2 2140   4.516   3.056   2.140  0.1041  1.0896 -0.7120
  633SOL     OW 2141   1.727   5.148   0.566 -0.2879 -0.3586 -0.3022
  633SOL    HW1 2142   1.780   5.072   0.541 -1.2099 -0.9532 -0.4996
  633SOL    HW2 2143   1.782   5.197   0.627 -0.7123 -2.6906  2.1543
  634SOL     OW 2144   6.441   4.513   2.897 -0.7698  0.2412  0.2282
  634SOL    HW1 2145   6.367   4.539   2.952 -1.4780 -2.5116  0.7687
  634SOL    HW2 2146   6.414   4.539   2.808 -0.9264  2.0892  0.7712
  635SOL     OW 2147   4.613   3.757   2.648 -0.0356  1.2920  0.5917
  635SOL    HW1 2148   4.665   3.755   2.728 -0.2276  0.6757  0.7096
  635SOL    HW2 2149   4.528   3.720   2.674  0.5796 -0.9675 -0.3555
  636SOL     OW 2150   0.281   4.497   0.145 -0.1934 -0.9267 -0.3585
  636SOL    HW1 2151   0.268   4.423   0.205  0.6955 -0.9997 -0.2398
  636SOL    HW2 2152   0.367   4.481   0.106 -0.6405 -0.7292 -1.4498
  637SOL     OW 2153   1.589   4.765   0.766 -0.5363 -0.7704 -0.2051
  637SOL    HW1 2154   1.613   4.782   0.675 -0.3400 -0.8655 -0.1708
  637SOL    HW2 2155   1.573   4.670   0.769 -0.4860 -0.7765 -0.1271
  638SOL     OW 2156   1.341   2.444   0.939  0.3245 -0.0013  0.8523
  638SOL    HW1 2157   1.372   2.385   1.007  0.2270 -2.3378 -1.0103
  638SOL    HW2 2158   1.408   2.440   0.870 -0.4162  0.8714  0.0523
  639SOL     OW 2159   4.150   1.175   0.782 -0.6049 -0.0143 -0.1024
  639SOL    HW1 2160   4.083   1.195   0.847 -1.2527 -0.0885 -0.7363
  639SOL    HW2 2161   4.198   1.257   0.770 -1.0827  0.2506 -0.2170
  640SOL     OW 2162   3.653   2.031   1.006 -0.0722  0.4305  0.1560
  640SOL    HW1 2163   3.593   2.016   0.933  1.3233 -2.2070 -0.5343
  640SOL    HW2 2164   3.628   1.966   1.071  0.6634  0.7444  0.7655
  641SOL     OW 2165   0.162   1.608  -0.020  0.1943  0.2420  0.1532
  641SOL    HW1 2166   0.216   1.677   0.019 -0.5679  0.8369  0.1967
  641SOL    HW2 2167   0.081   1.611   0.031 -0.1643 -0.1149 -0.3968
  642SOL     OW 2168   5.641   6.074   2.513  0.0559 -0.7217 -0.5214
  642SOL    HW1 2169   5.672   6.123   2.437 -0.5116 -0.1082 -0.3621
  642SOL    HW2 2170   5.597   5.997   2.476  2.7884 -2.2901 -0.7402
  643SOL     OW 2171   3.395   1.673   1.445  0.7256 -0.3552 -0.0198
  643SOL    HW1 2172   3.395   1.657   1.540 -1.2271  0.2649  0.1313
  643SOL    HW2 2173   3.414   1.587   1.407 -1.1275 -1.2716  0.9344
  644SOL     OW 2174   2.336   4.387   0.416  0.1799 -0.0924 -0.1090
  644SOL    HW1 2175   2.362   4.322   0.351 -1.1400  1.4425 -2.3154
  644SOL    HW2 2176   2.255   4.424   0.381 -0.6427  0.7537  2.5002
  645SOL     OW 2177   4.278   4.956   0.975 -0.4711  0.3270 -0.7622
  645SOL    HW1 2178   4.286   4.921   0.887  1.5211 -1.2073 -0.0604
  645SOL    HW2 2179   4.329   5.037   0.974  1.3183 -0.7322 -0.5899
  646SOL     OW 2180   5.093   5.895   2.532  0.1096  0.0965  0.6306
  646SOL    HW1 2181   5.077   5.815   2.483 -1.2179  1.0982 -0.6873
  646SOL    HW2 2182   5.175   5.929   2.497 -0.9530  0.9409 -1.2077
  647SOL     OW 2183   3.032   3.025   2.270 -0.1798  0.6651  0.0663
  647SOL    HW1 2184   3.125   3.013   2.287 -0.3217 -1.4414 -0.3739
  647SOL    HW2 2185   2.990   2.948   2.310 -1.9508  2.4517  1.8430
  648SOL     OW 2186   4.762   4.910   1.013  0.0774  0.1230 -0.0291
  648SOL    HW1 2187   4.832   4.895   0.949  1.4968  2.9232  0.7003
  648SOL    HW2 2188   4.694   4.956   0.963 -0.8680 -1.6371 -0.4734
  649SOL     OW 2189   4.271   4.402   3.200  0.4098  0.3847  0.5493
  649SOL    HW1 2190   4.301   4.353   3.277  0.3194 -0.1019  0.2734
  649SOL    HW2 2191   4.176   4.406   3.210  0.4564  0.9812  0.8514
  650SOL     OW 2192   1.245   1.297   0.698  0.3981 -0.0700  0.1695
  650SOL    HW1 2193   1.224   1.268   0.786  1.4596 -1.4594 -0.0109
  650SOL    HW2 2194   1.292   1.224   0.658 -1.4526 -0.1464 -2.1100
  651SOL     OW 2195   6.333   5.688   3.055 -0.3673  0.2406 -0.1085
  651SOL    HW1 2196   6.341   5.614   3.115 -1.4822 -1.9481 -2.4534
  651SOL    HW2 2197   6.411   5.741   3.071  0.0064 -0.9288  2.2993
  652SOL     OW 2198   5.190   5.015   0.611  0.2797 -0.0594 -0.4837
  652SOL    HW1 2199   5.222   5.106   0.620  0.1664 -0.0549 -0.1282
  652SOL    HW2 2200   5.248   4.964   0.668  0.6567 -0.2852 -1.0615
  653SOL     OW 2201   3.313   3.873   3.045  0.1770  0.1063  0.3183
  653SOL    HW1 2202   3.291   3.944   2.985 -1.0675 -1.1213 -0.7240
  653SOL    HW2 2203   3.400   3.896   3.078  0.1132  1.7292 -0.5576
  654SOL     OW 2204   5.708   2.470   1.668 -0.1151  0.0938 -0.2931
  654SOL    HW1 2205   5.712   2.551   1.719 -0.8386  0.2922 -0.5439
  654SOL    HW2 2206   5.800   2.453   1.645 -0.0236  1.2536 -0.8810
  655SOL     OW 2207   4.869   2.858   1.199  0.3680 -0.1627  0.6262
  655SOL    HW1 2208   4.941   2.921   1.200  0.5842 -0.3838  2.1101
  655SOL    HW2 2209   4.912   2.772   1.207 -0.0283 -0.3221  1.1017
  656SOL     OW 2210   1.110   4.348   1.435 -0.9136 -0.3288  0.2598
  656SOL    HW1 2211   1.120   4.442   1.444  0.7279 -0.5070  0.5374
  656SOL    HW2 2212   1.018   4.332   1.456 -0.9448  1.0703  1.3661
  657SOL     OW 2213   1.081   3.739   0.414 -0.1909 -0.9584 -0.0685
  657SOL    HW1 2214   1.042   3.802   0.475  2.4940 -0.3139  1.1312
  657SOL    HW2 2215   1.117   3.794   0.344  0.0539 -1.3704 -0.2656
  658SOL     OW 2216   1.399   4.984   1.395 -0.1615 -0.0759  0.0614
  658SOL    HW1 2217   1.417   4.910   1.337  0.2458  1.8590 -2.4233
  658SOL    HW2 2218   1.474   4.986   1.456  1.5529  0.2074 -1.9518
  659SOL     OW 2219   3.545   2.978   2.378 -0.1621 -0.5135  0.1405
  659SOL    HW1 2220   3.551   3.073   2.376 -0.0553 -0.5285 -0.8597
  659SOL    HW2 2221   3.560   2.951   2.287 -2.1297 -1.3553  0.0015
  660SOL     OW 2222   5.372   5.397   1.864 -0.6385  0.2452  0.0522
  660SOL    HW1 2223   5.450   5.342   1.874 -1.3568 -1.2467 -1.9381
  660SOL    HW2 2224   5.405   5.487   1.866  1.3865 -0.3573 -2.2300
  661SOL     OW 2225   3.587   3.963   3.118 -0.1641  0.3334  0.1372
  661SOL    HW1 2226   3.575   3.989   3.209  2.6291  3.0228 -0.1454
  661SOL    HW2 2227   3.681   3.964   3.104 -0.5067  0.1427 -2.8526
  662SOL     OW 2228   4.028   1.597   1.102  0.1171  0.1264 -0.2310
  662SOL    HW1 2229   3.978   1.544   1.165 -2.0345 -1.1786 -2.8367
  662SOL    HW2 2230   3.962   1.630   1.041  2.2532 -0.3784 -2.9984
  663SOL     OW 2231   5.713   4.938   1.524  0.2577 -0.0978  0.2873
  663SOL    HW1 2232   5.804   4.942   1.553  0.2077 -0.1369  0.4528
  663SOL    HW2 2233   5.700   5.018   1.473  0.3952 -0.1114  0.2304
  664SOL     OW 2234   1.050   4.379   0.447 -0.4299 -0.1269 -0.1821
  664SOL    HW1 2235   0.969   4.340   0.413 -0.2339 -0.4793 -0.2467
  664SOL    HW2 2236   1.036   4.474   0.440 -0.8123 -0.1881 -0.2497
  665SOL     OW 2237   2.078   1.433   1.018 -0.6306 -0.0927 -0.0337
  665SOL    HW1 2238   2.043   1.453   0.931  0.2819  0.7241 -0.2302
  665SOL    HW2 2239   2.157   1.382   1.002  1.1113  2.3695  0.1254
  666SOL     OW 2240   0.788   2.622   0.705 -0.1181  0.3027  0.0334
  666SOL    HW1 2241   0.774   2.578   0.622 -0.4762  0.2809  0.1042
  666SOL    HW2 2242   0.831   2.556   0.760  0.7754  0.5488 -0.3623
  667SOL     OW 2243   4.710   4.463   0.521 -0.1590  0.4711 -0.0941
  667SOL    HW1 2244   4.668   4.451   0.606  0.2681 -0.8424 -0.0502
  667SOL    HW2 2245   4.739   4.554   0.521 -1.7400  1.0069  0.4271
  668SOL     OW 2246   5.156   6.916   3.062 -0.1993  0.5588 -0.0579
  668SOL    HW1 2247   5.172   6.955   3.148  2.1518 -1.6767  0.6590
  668SOL    HW2 2248   5.229   6.946   3.008 -1.6212  1.8834 -1.3292
  669SOL     OW 2249   5.001   2.399   3.300 -0.1838 -0.3374 -0.4518
  669SOL    HW1 2250   4.965   2.487   3.287  1.1003  0.3550  0.4891
  669SOL    HW2 2251   5.094   2.407   3.279  0.0729 -1.3303  0.2308
  670SOL     OW 2252   1.607   3.659   2.017 -0.0110  0.3849  0.0241
  670SOL    HW1 2253   1.550   3.658   1.941  1.1866  0.1339 -0.8989
  670SOL    HW2 2254   1.686   3.614   1.989  0.2360 -0.2610  1.6083
  671SOL     OW 2255   4.301   0.448   0.268  0.1489  0.2914  0.3842
  671SOL    HW1 2256   4.213   0.470   0.298  0.1684 -0.3237  0.9277
  671SOL    HW2 2257   4.309   0.491   0.183 -1.2237 -0.8785 -0.3877
  672SOL     OW 2258   4.443   1.748   1.896  0.3119 -0.7229 -0.3372
  672SOL    HW1 2259   4.486   1.682   1.950 -0.2340 -2.7177 -2.2371
  672SOL    HW2 2260   4.472   1.730   1.807 -0.9475  0.7429 -1.1046
  673SOL     OW 2261   2.741   5.572   2.652  0.6088 -0.3904  0.2297
  673SOL    HW1 2262   2.789   5.526   2.582 -0.0537 -2.0817  0.8245
  673SOL    HW2 2263   2.757   5.519   2.730 -1.9411 -0.8536  0.5111
  674SOL     OW 2264   3.954   3.194   2.788  0.0017  0.3819 -0.4144
  674SOL    HW1 2265   3.987   3.153   2.868  0.0410 -0.9167 -1.0610
  674SOL    HW2 2266   4.032   3.205   2.733  0.1376  2.1964  0.0805
  675SOL     OW 2267   4.472   6.631   2.735  0.0345  0.0082 -0.0563
  675SOL    HW1 2268   4.556   6.585   2.735  0.5671  0.8688  2.2415
  675SOL    HW2 2269   4.424   6.593   2.809 -0.8581  0.8212 -0.2083
  676SOL     OW 2270   1.094   1.624   1.159  0.0094 -0.4498 -0.2227
  676SOL    HW1 2271   1.116   1.700   1.213  0.5827 -0.7427 -0.0374
  676SOL    HW2 2272   1.171   1.567   1.165 -0.3021 -0.9161 -0.5881
  677SOL     OW 2273   4.375   0.585   0.064 -0.1734  0.7211  0.1782
  677SOL    HW1 2274   4.375   0.657   0.001  0.2072  0.2663 -0.3590
  677SOL    HW2 2275   4.462   0.545   0.055  0.2980  1.3259  1.8016
  678SOL     OW 2276   5.265   3.488   1.618 -0.1382  0.1327  0.1419
  678SOL    HW1 2277   5.238   3.423   1.683 -0.4581  0.5277  0.4069
  678SOL    HW2 2278   5.295   3.563   1.670 -4.2143  2.1415  0.0055
  679SOL     OW 2279   3.406   1.578   1.694 -0.6357  0.1818 -0.2530
  679SOL    HW1 2280   3.337   1.603   1.755 -0.0203 -0.6704  0.8231
  679SOL    HW2 2281   3.477   1.544   1.749  0.0559 -0.3455 -1.4171
  680SOL     OW 2282   5.123   1.998   0.511  0.4308 -0.2828  0.6972
  680SOL    HW1 2283   5.207   1.990   0.555  2.2257 -0.7942 -2.5640
  680SOL    HW2 2284   5.119   2.089   0.482  0.6351 -0.6359 -0.4987
  681SOL     OW 2285   5.588   3.866   1.644  0.6329  0.0592  0.2257
  681SOL    HW1 2286   5.567   3.815   1.722 -0.9789 -0.7253 -0.6610
  681SOL    HW2 2287   5.620   3.950   1.678  0.0182 -0.2707  1.7082
  682SOL     OW 2288   5.220   4.356   1.377 -0.2827  0.5701 -0.3673
  682SOL    HW1 2289   5.186   4.441   1.349 -1.1404 -0.0963 -1.4711
  682SOL    HW2 2290   5.175   4.339   1.460  0.7136  1.6524  0.4284
  683SOL     OW 2291   2.992   1.049   1.452  0.2893 -0.5089  0.7068
  683SOL    HW1 2292   2.921   1.038   1.388  0.9017 -2.1160  0.2647
  683SOL    HW2 2293   3.072   1.043   1.401  0.7891 -1.4591  1.5797
  684SOL     OW 2294   1.804   2.657   1.574  0.2333 -0.1052 -0.1942
  684SOL    HW1 2295   1.879   2.651   1.633  1.0826  1.3871 -1.0519
  684SOL    HW2 2296   1.778   2.749   1.578 -0.3433 -0.2027 -1.3718
  685SOL     OW 2297   5.003   2.527   1.465  0.6087  0.1250  0.3126
  685SOL    HW1 2298   5.021   2.578   1.386  1.7272 -0.3000  0.2769
  685SOL    HW2 2299   4.916   2.555   1.492  0.6082  0.9862 -0.5256
  686SOL     OW 2300   2.928   3.086   1.235 -0.1527  0.6567 -0.1712
  686SOL    HW1 2301   2.992   3.039   1.289 -1.1836 -0.2533  0.2898
  686SOL    HW2 2302   2.976   3.108   1.155  0.6822 -0.1761  0.0809
  687SOL     OW 2303   3.152   3.889   0.724 -0.0929 -0.0665  0.0050
  687SOL    HW1 2304   3.120   3.975   0.695  0.8801  0.3063  0.0018
  687SOL    HW2 2305   3.202   3.856   0.649 -2.6827 -1.8988 -1.0800
  688SOL     OW 2306   3.774   4.971   2.619  0.0257 -0.2124  0.5233
  688SOL    HW1 2307   3.817   5.051   2.647  0.5306 -0.4418  0.4189
  688SOL    HW2 2308   3.684   4.980   2.650 -0.4097  1.1668 -1.0071
  689SOL     OW 2309   3.690   1.728   0.711 -0.4467  0.2372 -0.4440
  689SOL    HW1 2310   3.664   1.635   0.711 -0.9017  0.3638 -0.4468
  689SOL    HW2 2311   3.740   1.738   0.631 -0.9513  0.1464 -0.7730
  690SOL     OW 2312   3.084   3.695   2.255 -0.4757  0.4315 -0.1535
  690SOL    HW1 2313   3.094   3.609   2.213 -0.4472  0.0075  0.7077
  690SOL    HW2 2314   2.996   3.723   2.229 -0.2727  0.4124 -0.9090
  691SOL     OW 2315   2.887   3.414   2.825  0.3806 -0.9129  0.6056
  691SOL    HW1 2316   2.919   3.338   2.874  0.7329  0.3134  2.3462
  691SOL    HW2 2317   2.959   3.434   2.764  1.0639 -0.8660  1.4085
  692SOL     OW 2318   0.807   2.850   1.054  0.4851  0.1872 -0.8349
  692SOL    HW1 2319   0.813   2.756   1.069  1.4311  0.3660  0.0246
  692SOL    HW2 2320   0.855   2.865   0.973  1.3093  0.0680 -0.3734
  693SOL     OW 2321   5.145   5.985   1.954 -0.4541 -0.5906  0.6653
  693SOL    HW1 2322   5.131   5.964   1.861 -0.6509 -2.2106  1.0265
  693SOL    HW2 2323   5.215   6.050   1.953 -0.2098 -0.8376 -0.6121
  694SOL     OW 2324   4.247   2.223   3.163  1.0992  0.0880 -0.2909
  694SOL    HW1 2325   4.258   2.292   3.229 -0.6845  0.8522 -0.7207
  694SOL    HW2 2326   4.325   2.230   3.108  1.1648  1.5037 -0.0654
  695SOL     OW 2327   5.070   1.616   1.486 -0.1260  0.4278  0.3102
  695SOL    HW1 2328   5.138   1.563   1.528 -0.7595  0.7059  1.7518
  695SOL    HW2 2329   5.009   1.553   1.449  0.1294  0.1678  0.3309
  696SOL     OW 2330   0.651   3.570   0.538 -0.2347  0.6564 -0.0585
  696SOL    HW1 2331   0.679   3.613   0.619  0.5641 -0.8399  0.5145
  696SOL    HW2 2332   0.557   3.584   0.534 -0.0457  2.1724  0.2323
  697SOL     OW 2333   6.421   6.352   2.931 -0.3172 -0.0108  0.2334
  697SOL    HW1 2334   6.343   6.354   2.986 -0.8415  0.7795 -0.5162
  697SOL    HW2 2335   6.390   6.379   2.844  0.8401  0.6345 -0.0014
  698SOL     OW 2336   2.743   2.114   1.297  0.0056  0.2411  0.6509
  698SOL    HW1 2337   2.695   2.156   1.368  1.2929  1.3143  0.9268
  698SOL    HW2 2338   2.833   2.144   1.308  0.5189 -0.7780 -0.5420
  699SOL     OW 2339   3.827   2.684   3.349 -0.3911  0.0301 -0.3355
  699SOL    HW1 2340   3.799   2.775   3.336  1.0045  0.2750 -1.9952
  699SOL    HW2 2341   3.900   2.673   3.288 -0.0547 -1.9988  0.3737
  700SOL     OW 2342   5.911   4.723   1.798  0.5002  0.4562 -0.3693
  700SOL    HW1 2343   5.901   4.779   1.721  1.2297  0.3393 -0.5571
  700SOL    HW2 2344   5.974   4.770   1.853 -0.8397  1.0959  0.6960
  701SOL     OW 2345   4.252   3.499   2.215  0.8291  0.2203  0.6866
  701SOL    HW1 2346   4.322   3.435   2.222  0.1962 -0.3717  1.8298
  701SOL    HW2 2347   4.212   3.502   2.302 -1.3452 -0.3995 -0.2121
  702SOL     OW 2348   2.468   4.232   0.639 -0.4181  0.0867 -0.4556
  702SOL    HW1 2349   2.459   4.282   0.558  0.4721  0.6556 -0.2172
  702SOL    HW2 2350   2.511   4.151   0.613 -0.2795  0.1990 -0.5736
  703SOL     OW 2351   4.030   5.445   2.053  0.3200 -0.5413  0.1624
  703SOL    HW1 2352   4.028   5.540   2.048 -0.6191 -0.5132  0.7322
  703SOL    HW2 2353   3.942   5.421   2.084  0.1710 -1.6527 -1.0278
  704SOL     OW 2354   2.069   5.480   2.247 -0.1593 -0.4924  0.1953
  704SOL    HW1 2355   2.039   5.435   2.325 -1.3287 -0.2973 -0.1266
  704SOL    HW2 2356   2.149   5.434   2.222  0.6886 -0.0649  1.9410
  705SOL     OW 2357   4.590   1.747   1.601  0.4855 -0.1784  0.0342
  705SOL    HW1 2358   4.658   1.790   1.653  1.3450 -2.2482  0.7395
  705SOL    HW2 2359   4.575   1.806   1.528  2.5167  0.7272  0.2729
  706SOL     OW 2360   0.968   2.904   0.819  0.1433 -0.7300 -0.6767
  706SOL    HW1 2361   0.938   2.896   0.729  0.9734  0.6973 -1.1295
  706SOL    HW2 2362   1.041   2.967   0.814  1.5310 -2.1416  0.6965
  707SOL     OW 2363   2.361   6.276   2.490  0.3427 -0.2569  0.8360
  707SOL    HW1 2364   2.361   6.180   2.487  0.2536 -0.2683 -2.5533
  707SOL    HW2 2365   2.272   6.301   2.465  0.9792  0.6272 -0.7579
  708SOL     OW 2366   1.922   2.672   0.380  0.2814  0.3393  0.2913
  708SOL    HW1 2367   1.988   2.603   0.389  0.7778  0.4035 -2.1074
  708SOL    HW2 2368   1.839   2.626   0.387  0.6092 -0.5194 -1.0753
  709SOL     OW 2369   3.523   2.062   2.589  0.1209  0.2031  0.3993
  709SOL    HW1 2370   3.596   2.073   2.649  0.6983 -1.2860 -0.0094
  709SOL    HW2 2371   3.457   2.015   2.640 -0.5222  1.3974  0.7149
  710SOL     OW 2372   4.209   1.459   1.390  0.4530  0.8093 -0.4185
  710SOL    HW1 2373   4.297   1.422   1.385  0.5853  1.2366 -1.5137
  710SOL    HW2 2374   4.197   1.482   1.482  1.6821  1.2079 -0.3471
  711SOL     OW 2375   2.390   2.268   2.132 -0.1211 -0.5485  0.2188
  711SOL    HW1 2376   2.404   2.204   2.063 -1.2119 -1.4828  0.8348
  711SOL    HW2 2377   2.296   2.284   2.132 -0.1993 -0.8275  1.6848
  712SOL     OW 2378   4.887   4.006   0.737  0.1643  0.7142  0.2485
  712SOL    HW1 2379   4.858   4.048   0.819  0.5860  2.2442 -0.3441
  712SOL    HW2 2380   4.978   3.980   0.755 -0.6068 -1.5380  1.1734
  713SOL     OW 2381   5.165   5.392   2.569  0.7094  0.1850  0.7559
  713SOL    HW1 2382   5.179   5.314   2.515 -0.8739  0.0284  0.5172
  713SOL    HW2 2383   5.139   5.357   2.655  1.7629  0.4508  1.1992
  714SOL     OW 2384   2.511   1.281   0.967  0.7834 -0.8362 -0.2418
  714SOL    HW1 2385   2.511   1.370   0.934  0.1138 -0.8169 -0.1900
  714SOL    HW2 2386   2.421   1.251   0.958  0.8658 -1.2815  0.3494
  715SOL     OW 2387   4.822   0.979   0.834 -0.2163 -0.2328  0.1790
  715SOL    HW1 2388   4.872   1.036   0.892 -1.2375  1.4158 -0.5092
  715SOL    HW2 2389   4.815   1.028   0.753 -1.7254 -1.0507 -0.2084
  716SOL     OW 2390   2.980   5.634   3.327 -0.1600  0.1485 -0.2828
  716SOL    HW1 2391   2.913   5.676   3.273 -0.6614  2.3457  1.8547
  716SOL    HW2 2392   2.931   5.581   3.389  0.1264  0.6407  0.3819
  717SOL     OW 2393   5.471   2.962   2.395  0.5644  0.3627  0.1965
  717SOL    HW1 2394   5.430   2.896   2.450 -0.9937  1.1428  0.0434
  717SOL    HW2 2395   5.473   2.923   2.307 -0.1585  0.4347  0.1459
  718SOL     OW 2396   0.647   1.497   0.631  0.5810 -0.0821  0.5169
  718SOL    HW1 2397   0.640   1.528   0.541  1.1760 -2.2304 -0.3263
  718SOL    HW2 2398   0.734   1.524   0.659  1.0559 -0.9157 -0.1609
  719SOL     OW 2399   6.284   6.775   3.396  0.4600  0.0701 -0.3772
  719SOL    HW1 2400   6.190   6.764   3.387  0.3433  0.9437 -0.2972
  719SOL    HW2 2401   6.321   6.732   3.318  0.0723 -1.1284  0.0750
  720SOL     OW 2402   5.543   3.439   1.893 -0.1185  0.6086  0.1872
  720SOL    HW1 2403   5.540   3.387   1.812  2.1933 -0.1533  0.5278
  720SOL    HW2 2404   5.502   3.383   1.959 -2.5501  1.4673 -0.5196
  721SOL     OW 2405   2.137   3.297   2.411  0.0947 -0.2859  0.5715
  721SOL    HW1 2406   2.151   3.392   2.401  1.9004 -0.2474  2.6296
  721SOL    HW2 2407   2.046   3.289   2.438 -0.1623  0.8202  0.1091
  722SOL     OW 2408   3.761   3.015   3.060  0.5278  0.1014 -0.0390
  722SOL    HW1 2409   3.676   3.027   3.018 -0.1418 -1.3965  0.7899
  722SOL    HW2 2410   3.743   2.954   3.132  2.4499 -0.8484 -0.3171
  723SOL     OW 2411   4.413   4.469   1.513  0.6237  0.4492 -0.3115
  723SOL    HW1 2412   4.477   4.398   1.506 -0.1941 -0.4187  0.5531
  723SOL    HW2 2413   4.466   4.548   1.522  1.5677 -0.1456 -0.4404
  724SOL     OW 2414   5.107   4.312   0.571  0.3062 -0.6031  0.3316
  724SOL    HW1 2415   5.158   4.273   0.642 -1.2911 -1.8986  0.8170
  724SOL    HW2 2416   5.023   4.336   0.612 -0.7721 -1.6623 -1.1565
  725SOL     OW 2417   3.923   4.285   3.251 -0.0432  0.2789  0.0670
  725SOL    HW1 2418   3.977   4.206   3.246 -1.9954 -1.2329  1.2322
  725SOL    HW2 2419   3.868   4.282   3.173 -1.5815 -0.7458  1.1162
  726SOL     OW 2420   2.150   1.037   0.583  0.3878  0.3132 -0.5256
  726SOL    HW1 2421   2.131   1.029   0.490  0.1297 -0.2972 -0.4221
  726SOL    HW2 2422   2.176   0.949   0.610 -1.3618  0.0322  0.3840
  727SOL     OW 2423   4.215   5.263   1.962  0.0401 -0.2839 -0.4404
  727SOL    HW1 2424   4.275   5.312   1.906 -0.8619  1.1639 -0.1886
  727SOL    HW2 2425   4.148   5.327   1.988  0.3588 -0.9189  2.2104
  728SOL     OW 2426   2.155   3.565   2.329  0.4626 -0.2200  0.4783
  728SOL    HW1 2427   2.226   3.587   2.269 -1.4398  1.1215 -1.4683
  728SOL    HW2 2428   2.146   3.642   2.385 -1.0566  0.7721 -1.0306
  729SOL     OW 2429   0.225   4.022   0.223  0.0627 -0.2440 -0.2329
  729SOL    HW1 2430   0.290   3.953   0.211  0.1383 -0.3507  0.7475
  729SOL    HW2 2431   0.143   3.976   0.243 -0.0082 -0.0680 -0.1086
  730SOL     OW 2432   2.746   1.833   1.326  0.0847  0.5161  0.2870
  730SOL    HW1 2433   2.741   1.924   1.298  0.1320  0.6947  0.8593
  730SOL    HW2 2434   2.827   1.800   1.287  0.1443  0.7623  0.2033
  731SOL     OW 2435   4.849   3.479   0.054 -0.3674 -0.3330 -0.2352
  731SOL    HW1 2436   4.784   3.469   0.123  2.2824 -0.1406  2.4982
  731SOL    HW2 2437   4.851   3.573   0.037  0.3685 -0.1146  0.9610
  732SOL     OW 2438   2.139   3.694   1.933  0.3694 -0.1821 -0.0653
  732SOL    HW1 2439   2.178   3.609   1.912  0.1167 -0.8105  1.8731
  732SOL    HW2 2440   2.211   3.747   1.966  0.5285  0.3892 -1.2785
  733SOL     OW 2441   1.479   3.746   0.270  0.0858  0.3390 -0.3511
  733SOL    HW1 2442   1.480   3.719   0.178 -0.4422 -1.5237  0.1467
  733SOL    HW2 2443   1.510   3.670   0.318  0.3000  1.2625  1.0426
  734SOL     OW 2444   5.310   2.663   0.833 -0.4236  0.5699 -0.0574
  734SOL    HW1 2445   5.385   2.635   0.781  0.3271  0.8693  0.8540
  734SOL    HW2 2446   5.249   2.589   0.829  0.6320 -0.3532  0.5800
  735SOL     OW 2447   4.620   2.856   3.021  0.7589  0.3724 -0.2931
  735SOL    HW1 2448   4.702   2.808   3.028  0.0022 -0.7509  2.1862
  735SOL    HW2 2449   4.557   2.792   2.989  0.5690  0.8836 -0.9689
  736SOL     OW 2450   0.603   1.029   0.122  0.8063 -0.2101 -0.0602
  736SOL    HW1 2451   0.524   0.976   0.134  0.8720 -0.0106  1.5203
  736SOL    HW2 2452   0.675   0.971   0.144  0.9570  0.1570  0.4426
  737SOL     OW 2453   2.388   2.268   0.933 -0.1885 -0.1923 -0.5668
  737SOL    HW1 2454   2.422   2.215   1.005 -2.0911 -1.2577 -0.3740
  737SOL    HW2 2455   2.462   2.278   0.873  0.3263 -2.9402 -0.5260
  738SOL     OW 2456   3.717   4.460   2.146 -0.5581  0.1005  0.2704
  738SOL    HW1 2457   3.763   4.480   2.065  1.5566  1.0701  1.6089
  738SOL    HW2 2458   3.697   4.545   2.184 -0.9655 -0.3318  1.0566
  739SOL     OW 2459   2.856   3.323   2.256  0.1289  0.1700  0.3794
  739SOL    HW1 2460   2.942   3.356   2.230  1.4487 -1.5272  2.3397
  739SOL    HW2 2461   2.839   3.250   2.196  0.1421  0.3436  0.1609
  740SOL     OW 2462   4.386   2.484   0.664 -0.0962 -0.0795 -0.0966
  740SOL    HW1 2463   4.351   2.571   0.647  0.8973  0.1049 -1.2730
  740SOL    HW2 2464   4.453   2.498   0.731 -0.9774 -0.1857  0.8443
  741SOL     OW 2465   2.111   5.994   2.286  0.0480 -0.2089  0.3066
  741SOL    HW1 2466   2.201   6.019   2.308  0.1104 -0.1716  0.0189
  741SOL    HW2 2467   2.114   5.899   2.279 -0.1327 -0.2837  1.1538
  742SOL     OW 2468   4.283   4.988   1.937 -0.3437 -0.1160  0.1029
  742SOL    HW1 2469   4.252   4.936   1.862 -1.3198 -0.1130  0.4942
  742SOL    HW2 2470   4.230   5.067   1.934 -0.6889 -0.3073  1.0549
  743SOL     OW 2471   4.680   3.454   2.814 -0.2944  0.1459 -0.8080
  743SOL    HW1 2472   4.686   3.542   2.852  0.7304 -0.3251  0.1575
  743SOL    HW2 2473   4.586   3.438   2.807 -0.5173  1.6648 -1.8685
  744SOL     OW 2474   4.754   3.226   2.661 -0.2033  0.0049 -0.8760
  744SOL    HW1 2475   4.774   3.165   2.732 -0.0515  0.5921 -0.4045
  744SOL    HW2 2476   4.733   3.309   2.705  0.7568  0.6252 -1.5348
  745SOL     OW 2477   3.758   0.236   0.155  0.1354 -0.0182  0.0187
  745SOL    HW1 2478   3.846   0.267   0.132  1.5306 -3.3319  0.2075
  745SOL    HW2 2479   3.704   0.260   0.080  1.2396  1.9086 -0.2095
  746SOL     OW 2480   3.828   5.531   2.373  0.5497 -0.3407  0.3435
  746SOL    HW1 2481   3.859   5.460   2.316 -2.8981  0.7604 -3.3834
  746SOL    HW2 2482   3.897   5.597   2.368  1.4243 -1.2853 -0.6000
  747SOL     OW 2483   5.252   1.444   1.597 -0.0735  0.5034  0.0403
  747SOL    HW1 2484   5.280   1.505   1.666 -0.6020  0.5098  0.2507
  747SOL    HW2 2485   5.334   1.407   1.564  0.2443  1.2121  0.0143
  748SOL     OW 2486   3.700   3.359   2.875 -0.6421 -0.5027 -0.0992
  748SOL    HW1 2487   3.670   3.401   2.794 -1.0319  0.5338  0.5542
  748SOL    HW2 2488   3.748   3.282   2.846  1.2834  1.1001 -1.4460
  749SOL     OW 2489   2.256   1.913   2.264  0.4318 -0.6581  0.0797
  749SOL    HW1 2490   2.328   1.919   2.200 -0.1383  1.0284 -0.4584
  749SOL    HW2 2491   2.300   1.914   2.349  1.0941 -0.4151 -0.2541
  750SOL     OW 2492   0.157   3.217   0.071 -0.8410 -0.0555  0.6556
  750SOL    HW1 2493   0.138   3.169  -0.010 -2.3302 -0.3522  1.1644
  750SOL    HW2 2494   0.112   3.301   0.060  1.0277  0.9488  0.1423
  751SOL     OW 2495   4.368   3.988   3.338 -0.2290  0.3867 -0.0652
  751SOL    HW1 2496   4.447   3.952   3.377 -0.8308 -0.4426  0.4319
  751SOL    HW2 2497   4.298   3.931   3.370 -0.9487  0.7303 -0.9867
  752SOL     OW 2498   6.466   5.150   3.356  0.2474  0.0511  0.1922
  752SOL    HW1 2499   6.500   5.221   3.411 -0.9260  0.2403  0.6963
  752SOL    HW2 2500   6.474   5.184   3.267  1.5866 -0.0117  0.2632
  753SOL     OW 2501   1.765   3.124   0.673  0.3349 -0.2976 -0.3976
  753SOL    HW1 2502   1.779   3.053   0.737  1.8357  0.4882  0.1899
  753SOL    HW2 2503   1.745   3.201   0.727 -0.8104 -0.1379 -1.0131
  754SOL     OW 2504   4.189   3.192   0.082  0.1092  0.3658 -0.0528
  754SOL    HW1 2505   4.208   3.272   0.033  0.4975  1.5470  1.9108
  754SOL    HW2 2506   4.273   3.146   0.086  0.4051  0.9619  0.6849
  755SOL     OW 2507   4.953   3.059   3.143  0.0602 -0.1789 -0.0539
  755SOL    HW1 2508   5.039   3.026   3.116  0.2127 -2.8455  3.0984
  755SOL    HW2 2509   4.973   3.131   3.202  0.1015 -0.3518  0.1433
  756SOL     OW 2510   4.190   4.771   0.323  0.0736 -0.4968 -0.4412
  756SOL    HW1 2511   4.239   4.742   0.399 -0.2489 -1.6319 -0.6450
  756SOL    HW2 2512   4.257   4.799   0.260  0.3261  0.7876  0.3695
  757SOL     OW 2513   5.604   3.223   2.310 -0.0576 -0.6106 -0.1348
  757SOL    HW1 2514   5.545   3.292   2.341  1.9920  1.0689  0.2531
  757SOL    HW2 2515   5.555   3.142   2.322 -2.2351  0.6879  0.2280
  758SOL     OW 2516   2.709   5.078   3.017 -0.2281 -0.0126 -0.0272
  758SOL    HW1 2517   2.718   5.011   3.084  1.4550  1.2751  1.1279
  758SOL    HW2 2518   2.764   5.048   2.945  1.0673  0.4067  0.7569
  759SOL     OW 2519   5.714   3.201   3.094  0.4529  0.0774  0.1824
  759SOL    HW1 2520   5.623   3.227   3.107  0.8200  0.8247  1.3936
  759SOL    HW2 2521   5.746   3.261   3.027 -0.5687 -1.7487 -2.0996
  760SOL     OW 2522   4.506   2.488   0.351 -0.4285 -0.2130 -0.2603
  760SOL    HW1 2523   4.526   2.479   0.445 -1.1463  2.4134  0.2242
  760SOL    HW2 2524   4.572   2.549   0.319 -0.3672 -0.8751 -1.4152
  761SOL     OW 2525   2.149   4.770   1.888 -0.0683  0.2294 -0.5382
  761SOL    HW1 2526   2.234   4.777   1.933 -0.4434  0.5254  0.1365
  761SOL    HW2 2527   2.168   4.719   1.809  0.7763  0.4554 -0.4909
  762SOL     OW 2528   2.533   6.482   2.582  0.5145 -0.0009  0.1603
  762SOL    HW1 2529   2.456   6.430   2.560 -0.8817  0.9073  2.5079
  762SOL    HW2 2530   2.573   6.436   2.656  0.2983  1.2496  1.0869
  763SOL     OW 2531   5.755   6.617   3.050 -0.0044 -0.0362  0.5663
  763SOL    HW1 2532   5.741   6.527   3.019 -2.4995  0.6491 -0.4966
  763SOL    HW2 2533   5.677   6.638   3.100  0.2125  1.7848  0.2070
  764SOL     OW 2534   1.183   4.784   1.228  0.0438  0.3678  0.2861
  764SOL    HW1 2535   1.249   4.750   1.288  0.3741 -0.6874 -0.6448
  764SOL    HW2 2536   1.216   4.763   1.141  0.0189  2.6676 -0.3440
  765SOL     OW 2537   1.465   2.014   0.408  0.3202  0.3076  0.1596
  765SOL    HW1 2538   1.427   1.982   0.326 -0.9264  0.7473  0.5350
  765SOL    HW2 2539   1.539   2.068   0.382  1.7252 -1.8215 -0.5428
  766SOL     OW 2540   0.547   2.771   0.425 -0.6510  0.1816  0.1617
  766SOL    HW1 2541   0.623   2.795   0.372 -1.9517  0.6758 -1.5806
  766SOL    HW2 2542   0.559   2.819   0.507  1.0567 -0.0020  0.0474
  767SOL     OW 2543   4.850   1.529   2.095 -0.2819 -0.1729 -0.2052
  767SOL    HW1 2544   4.857   1.449   2.147 -2.2087 -0.2800 -0.0255
  767SOL    HW2 2545   4.929   1.530   2.041 -0.2252 -2.2147 -0.2402
  768SOL     OW 2546   4.002   5.081   1.105 -0.0414  0.3540  0.0709
  768SOL    HW1 2547   4.081   5.049   1.062 -1.0324 -1.4182 -0.5366
  768SOL    HW2 2548   3.986   5.166   1.065 -0.6609 -1.0014 -2.8652
  769SOL     OW 2549   3.616   3.251   0.543 -0.0919 -0.3561  0.0204
  769SOL    HW1 2550   3.609   3.314   0.471  0.7124  1.3905  1.4161
  769SOL    HW2 2551   3.661   3.176   0.505  0.3270  0.5370 -1.2999
  770SOL     OW 2552   4.085   3.544   2.854 -0.5063 -0.3694  0.0096
  770SOL    HW1 2553   4.047   3.495   2.781  0.6595 -0.9758 -0.2149
  770SOL    HW2 2554   4.074   3.486   2.929  2.5137 -1.8777 -0.5883
  771SOL     OW 2555   2.478   5.164   2.897 -0.2398 -0.3619 -0.1740
  771SOL    HW1 2556   2.558   5.139   2.943  0.2066  0.0915 -0.6927
  771SOL    HW2 2557   2.415   5.182   2.966  0.7113  1.2806  0.3300
  772SOL     OW 2558   1.398   2.076   0.685 -0.6774  1.2795  0.3840
  772SOL    HW1 2559   1.436   2.043   0.603 -3.0763  1.8808 -1.0786
  772SOL    HW2 2560   1.473   2.102   0.738  1.0518 -0.8899 -0.8199
  773SOL     OW 2561   2.792   0.370   0.041  0.3417  0.2403 -0.0330
  773SOL    HW1 2562   2.713   0.424   0.041  0.7321  0.8773  1.4323
  773SOL    HW2 2563   2.773   0.301   0.104  1.1486  0.7588  0.8151
  774SOL     OW 2564   0.799   2.426   0.396 -0.4163  0.1461  0.2752
  774SOL    HW1 2565   0.878   2.388   0.433 -0.3466 -0.2480 -0.2568
  774SOL    HW2 2566   0.790   2.383   0.310  1.0313  3.0468 -1.4830
  775SOL     OW 2567   3.786   3.260   0.792 -0.0340  0.2043  0.0321
  775SOL    HW1 2568   3.758   3.256   0.701  2.2933  0.6465 -0.7666
  775SOL    HW2 2569   3.843   3.185   0.803 -1.3253 -0.6034  1.5546
  776SOL     OW 2570   3.753   3.457   2.397 -0.3248  0.3079  0.2682
  776SOL    HW1 2571   3.689   3.498   2.454  0.8941  0.0780  1.8659
  776SOL    HW2 2572   3.740   3.499   2.312 -1.1976  1.7163  1.0660
  777SOL     OW 2573   4.681   3.172   2.207  0.3365  0.3269  0.2287
  777SOL    HW1 2574   4.736   3.102   2.243 -1.0605 -0.1725  1.4909
  777SOL    HW2 2575   4.720   3.252   2.242 -1.0112 -0.1357  3.1188
  778SOL     OW 2576   2.653   3.468   0.244  0.0361  0.1569  0.2417
  778SOL    HW1 2577   2.743   3.438   0.245 -0.8763 -3.4305 -2.6718
  778SOL    HW2 2578   2.607   3.407   0.303 -0.7126  1.0965  0.6555
  779SOL     OW 2579   3.885   3.776   2.882 -0.3756 -0.4935 -0.3043
  779SOL    HW1 2580   3.980   3.777   2.883 -0.3424 -0.3215 -1.5819
  779SOL    HW2 2581   3.862   3.793   2.790 -1.6090 -3.0825 -0.5582
  780SOL     OW 2582   1.808   0.987   1.361  0.2654 -0.3348  0.5299
  780SOL    HW1 2583   1.860   1.036   1.298 -0.3362 -0.3692 -0.0062
  780SOL    HW2 2584   1.789   1.050   1.431 -0.0700  0.0545  0.0950
  781SOL     OW 2585   5.029   5.522   3.104 -0.2649 -0.0948 -0.0793
  781SOL    HW1 2586   5.115   5.526   3.146  0.8340 -1.8766 -1.9988
  781SOL    HW2 2587   4.975   5.471   3.165  0.8444 -1.3062 -0.0635
  782SOL     OW 2588   3.332   0.757   0.211 -0.7234 -0.3529  0.1541
  782SOL    HW1 2589   3.397   0.785   0.146  0.1228  0.9014  1.4993
  782SOL    HW2 2590   3.318   0.833   0.266 -1.0294 -1.5458  1.7981
  783SOL     OW 2591   2.094   6.390   2.461  0.7801  0.0849  0.2844
  783SOL    HW1 2592   2.023   6.437   2.505 -2.1488 -4.9570  1.7825
  783SOL    HW2 2593   2.091   6.421   2.371 -1.4664  2.0413  0.9295
  784SOL     OW 2594   5.984   4.331   2.908  0.4033 -0.8828 -0.0157
  784SOL    HW1 2595   5.893   4.336   2.938  0.4811  1.6050  0.0642
  784SOL    HW2 2596   6.030   4.285   2.978 -0.3488  0.1806  1.2286
  785SOL     OW 2597   4.623   5.581   2.687  0.2950 -0.5833  0.2095
  785SOL    HW1 2598   4.668   5.522   2.626  0.8730  0.0499  0.0156
  785SOL    HW2 2599   4.686   5.594   2.758  0.9809  1.3479 -0.6892
  786SOL     OW 2600   4.362   4.682   2.430  0.4331  0.6241  0.0828
  786SOL    HW1 2601   4.351   4.588   2.445 -0.8633  0.8433  0.6785
  786SOL    HW2 2602   4.411   4.688   2.349 -0.8393 -0.5762 -0.8294
  787SOL     OW 2603   4.507   5.358   1.687  0.1786  0.2313 -0.3900
  787SOL    HW1 2604   4.553   5.393   1.762  1.0433  0.2853 -0.9321
  787SOL    HW2 2605   4.562   5.381   1.612  0.1911 -1.2498 -0.8747
  788SOL     OW 2606   0.942   3.910   0.579 -0.7049  0.0807 -0.2686
  788SOL    HW1 2607   0.931   3.988   0.634  0.6905  0.1646 -0.0730
  788SOL    HW2 2608   0.898   3.840   0.629 -1.9854  0.7231 -0.4595
  789SOL     OW 2609   4.350   2.911   2.682  0.2663 -0.2971  0.8808
  789SOL    HW1 2610   4.383   2.844   2.622  0.7364  0.5684  0.1489
  789SOL    HW2 2611   4.356   2.992   2.633 -1.7417  0.0994  1.1906
  790SOL     OW 2612   4.547   4.788   2.253  0.4068  0.0438 -0.4500
  790SOL    HW1 2613   4.605   4.842   2.199  0.1851  0.0904 -0.6442
  790SOL    HW2 2614   4.557   4.824   2.341  1.0983 -0.3075 -0.3787
  791SOL     OW 2615   5.365   1.404   1.973  0.5576  0.5231  0.0158
  791SOL    HW1 2616   5.351   1.458   2.051 -2.0701 -0.6334  0.4552
  791SOL    HW2 2617   5.419   1.459   1.916  1.8434  1.7498  2.2434
  792SOL     OW 2618   5.528   5.095   2.525  0.3958  0.0199 -0.2634
  792SOL    HW1 2619   5.565   5.181   2.542  0.1877  0.4510 -1.8353
  792SOL    HW2 2620   5.443   5.113   2.485  0.2645 -0.9250 -0.4377
  793SOL     OW 2621   3.728   6.239   2.843  0.3770  0.3339 -0.3406
  793SOL    HW1 2622   3.715   6.319   2.792 -0.1327 -0.3260 -1.2723
  793SOL    HW2 2623   3.813   6.206   2.815  0.0233 -0.1170 -0.8896
  794SOL     OW 2624   2.892   4.983   1.792  0.0398  0.0217 -0.8983
  794SOL    HW1 2625   2.966   4.992   1.851 -0.3290 -1.2321 -0.2000
  794SOL    HW2 2626   2.817   4.965   1.849 -0.1759 -2.0488 -1.7272
  795SOL     OW 2627   2.694   2.034   2.521  0.6958  0.1774  0.2187
  795SOL    HW1 2628   2.622   2.091   2.492 -2.7610 -2.4858  2.6026
  795SOL    HW2 2629   2.678   1.951   2.476  0.7428 -1.1913  2.5588
  796SOL     OW 2630   1.823   4.573   1.116 -0.3032 -0.0067 -0.2327
  796SOL    HW1 2631   1.863   4.647   1.069  0.2678 -0.2551 -0.1505
  796SOL    HW2 2632   1.854   4.584   1.206  2.4219 -2.0707 -0.7717
  797SOL     OW 2633   4.061   3.134   1.283  0.3240 -0.5460 -0.0688
  797SOL    HW1 2634   4.039   3.044   1.260 -0.6184 -0.5085  0.6239
  797SOL    HW2 2635   4.114   3.126   1.362 -0.7615 -0.4512  0.6822
  798SOL     OW 2636   0.705   3.721   0.284  0.1801  0.0349  0.2863
  798SOL    HW1 2637   0.729   3.643   0.334 -0.3760 -0.2129  0.1797
  798SOL    HW2 2638   0.729   3.794   0.341 -1.1824 -0.2541  1.2959
  799SOL     OW 2639   2.644   2.694   2.523  0.0876 -0.2484  0.3832
  799SOL    HW1 2640   2.590   2.708   2.601 -0.5665 -2.0456  0.3121
  799SOL    HW2 2641   2.605   2.617   2.482  1.8515 -0.7255 -0.4622
  800SOL     OW 2642   4.673   3.494   0.262 -0.3232  0.0062 -0.5789
  800SOL    HW1 2643   4.610   3.551   0.306  1.4429  1.1826  0.5557
  800SOL    HW2 2644   4.696   3.428   0.327  1.2666  0.9383 -0.1339
  801SOL     OW 2645   5.987   6.216   3.283  0.5257 -0.3367 -0.0297
  801SOL    HW1 2646   5.959   6.291   3.336  3.1523  0.0382  0.9779
  801SOL    HW2 2647   6.012   6.150   3.348 -2.3585 -2.4589 -0.8749
  802SOL     OW 2648   1.885   3.996   0.184 -0.3816  0.3383  0.1480
  802SOL    HW1 2649   1.828   3.954   0.249  0.7697 -0.3770  0.7315
  802SOL    HW2 2650   1.946   4.049   0.236 -0.2916  0.8304 -0.4435
  803SOL     OW 2651   3.485   2.849   0.792  0.1462 -0.3535 -0.3984
  803SOL    HW1 2652   3.564   2.842   0.846  0.8925 -0.8878 -1.5179
  803SOL    HW2 2653   3.512   2.819   0.705 -0.9891  0.5816 -1.1179
  804SOL     OW 2654   6.379   3.353   3.163  0.0220 -0.1163 -0.2879
  804SOL    HW1 2655   6.447   3.392   3.108 -0.2029 -0.3333 -0.7302
  804SOL    HW2 2656   6.326   3.301   3.102 -0.1054 -0.5356  0.1715
  805SOL     OW 2657   2.763   2.868   1.923 -0.5633 -0.1715  0.6891
  805SOL    HW1 2658   2.684   2.829   1.884 -0.2959 -1.1431  1.0916
  805SOL    HW2 2659   2.815   2.793   1.952  0.6976  0.4468  0.0865
  806SOL     OW 2660   3.720   3.724   1.888 -0.3043 -0.1013 -0.0862
  806SOL    HW1 2661   3.631   3.710   1.856 -0.5247  0.2477  0.3716
  806SOL    HW2 2662   3.751   3.802   1.842 -0.5430  0.2730  0.3790
  807SOL     OW 2663   4.570   6.346   2.825 -0.0761  0.1057 -0.2287
  807SOL    HW1 2664   4.536   6.290   2.755 -1.5456  1.0662 -0.3344
  807SOL    HW2 2665   4.525   6.315   2.904  2.8520 -2.1526  0.7748
  808SOL     OW 2666   4.280   1.505   0.565 -0.2460 -0.2000  0.1476
  808SOL    HW1 2667   4.302   1.542   0.479 -0.5336 -1.1439 -0.3478
  808SOL    HW2 2668   4.260   1.581   0.619  1.7458  0.5485 -0.0753
  809SOL     OW 2669   2.238   5.904   2.653 -0.3761 -0.2998  0.6820
  809SOL    HW1 2670   2.149   5.898   2.690 -0.6573 -0.0887  0.0499
  809SOL    HW2 2671   2.267   5.813   2.647 -1.5431 -0.6087 -1.4528
  810SOL     OW 2672   4.775   2.920   3.288  0.1083 -0.5976  0.0951
  810SOL    HW1 2673   4.846   2.967   3.244 -0.8518  0.6200 -0.1696
  810SOL    HW2 2674   4.702   2.981   3.290 -0.4121 -1.2148  1.9101
  811SOL     OW 2675   0.922   4.384   0.928  0.3717 -0.6808 -0.0501
  811SOL    HW1 2676   0.918   4.453   0.862  1.4312  0.3046  0.8555
  811SOL    HW2 2677   1.015   4.377   0.950 -0.0616  0.2507  2.5272
  812SOL     OW 2678   2.822   5.233   2.644 -0.1203 -1.0962 -0.1042
  812SOL    HW1 2679   2.851   5.304   2.702  0.2091 -1.8629  0.6843
  812SOL    HW2 2680   2.904   5.195   2.612 -0.1929 -2.7899  1.5417
  813SOL     OW 2681   2.460   3.166   2.296 -0.6296 -0.1804 -0.0074
  813SOL    HW1 2682   2.369   3.139   2.308 -1.0377  1.3213  0.5421
  813SOL    HW2 2683   2.511   3.102   2.346 -1.4749 -0.3383  0.6728
  814SOL     OW 2684   4.431   2.678   2.934 -0.5539  0.1698  0.3900
  814SOL    HW1 2685   4.340   2.704   2.949 -1.5472 -2.8507  0.2786
  814SOL    HW2 2686   4.432   2.642   2.845  1.0221  1.1006 -0.0109
  815SOL     OW 2687   3.795   4.568   2.801  0.6564 -0.3149 -0.4474
  815SOL    HW1 2688   3.854   4.599   2.733 -0.2529  0.8585 -0.7234
  815SOL    HW2 2689   3.843   4.580   2.883  1.7060 -1.6187 -0.8302
  816SOL     OW 2690   2.725   2.758   1.566 -0.4048 -0.2148 -0.6297
  816SOL    HW1 2691   2.813   2.752   1.604 -0.9208 -1.1828  0.5041
  816SOL    HW2 2692   2.721   2.685   1.504  0.2879  1.1061 -2.3011
  817SOL     OW 2693   5.067   3.249   1.463  0.1866 -0.1181 -0.5559
  817SOL    HW1 2694   5.120   3.211   1.533 -0.1353  2.0822  0.9877
  817SOL    HW2 2695   5.038   3.173   1.412  0.9976 -1.7709  1.2786
  818SOL     OW 2696   3.053   3.786   3.047 -0.0502 -0.1197 -0.0161
  818SOL    HW1 2697   3.145   3.806   3.031 -0.3505  0.4178 -1.1412
  818SOL    HW2 2698   3.036   3.707   2.996 -0.8642  1.2724 -1.9898
  819SOL     OW 2699   3.971   4.893   0.454  0.2941  0.4177  0.3752
  819SOL    HW1 2700   4.046   4.854   0.409 -0.0392 -0.6434  0.7117
  819SOL    HW2 2701   3.919   4.818   0.483 -1.6521  1.1335 -1.0629
  820SOL     OW 2702   3.084   2.140   0.121  0.2100 -0.8539  0.6958
  820SOL    HW1 2703   3.046   2.175   0.202 -1.4021 -0.7058 -0.0871
  820SOL    HW2 2704   3.034   2.181   0.051  2.3327 -0.0850 -0.4630
  821SOL     OW 2705   2.262   3.881   0.762 -0.1533  0.0381 -0.3803
  821SOL    HW1 2706   2.222   3.926   0.687  0.6570  0.1686 -0.7387
  821SOL    HW2 2707   2.241   3.936   0.837  0.1412  0.5919 -0.6998
  822SOL     OW 2708   5.856   5.569   3.368  0.4413 -0.1316  0.0043
  822SOL    HW1 2709   5.824   5.533   3.286  3.5417  1.6362 -2.1917
  822SOL    HW2 2710   5.824   5.660   3.369  0.4645 -0.1231  0.7467
  823SOL     OW 2711   2.190   3.914   0.051 -0.1480  0.3552 -0.1182
  823SOL    HW1 2712   2.214   3.852  -0.018 -1.1030  0.4962 -0.5961
  823SOL    HW2 2713   2.126   3.972   0.009 -0.6004  0.5654  0.8386
  824SOL     OW 2714   0.327   1.833   0.046 -0.1203 -0.3602  0.1367
  824SOL    HW1 2715   0.386   1.758   0.040  0.7088  0.2936 -0.0135
  824SOL    HW2 2716   0.305   1.839   0.139  0.4919 -0.2696  0.2754
  825SOL     OW 2717   1.725   5.095   1.305  0.4120 -0.3748 -0.0069
  825SOL    HW1 2718   1.722   5.125   1.396  1.2753 -0.0456 -0.0711
  825SOL    HW2 2719   1.819   5.090   1.285  0.2712  1.6878 -1.5604
  826SOL     OW 2720   3.326   0.380   0.124  0.3506  0.6128 -0.0378
  826SOL    HW1 2721   3.325   0.402   0.031  0.2562  0.6792 -0.0212
  826SOL    HW2 2722   3.239   0.343   0.141  0.6475 -0.1516 -0.1540
  827SOL     OW 2723   4.692   3.633   2.195  0.0363  0.1735 -0.0878
  827SOL    HW1 2724   4.650   3.706   2.149  0.0156 -0.5094 -1.1759
  827SOL    HW2 2725   4.624   3.567   2.202  0.5360 -0.4046 -0.6248
  828SOL     OW 2726   2.119   2.164   0.375  0.1731 -0.3063  0.4092
  828SOL    HW1 2727   2.047   2.137   0.318  0.1988 -0.5062  0.4674
  828SOL    HW2 2728   2.176   2.087   0.379  0.7087  0.0584 -0.1268
  829SOL     OW 2729   3.088   1.238   1.173  0.0447 -0.6710  0.1068
  829SOL    HW1 2730   3.091   1.259   1.080 -1.0189 -1.4383 -0.1220
  829SOL    HW2 2731   3.153   1.169   1.185 -1.0997 -1.8763 -0.4487
  830SOL     OW 2732   3.297   1.100   1.271 -0.0898 -0.2014 -0.5271
  830SOL    HW1 2733   3.354   1.079   1.345 -1.8757 -0.4499  0.8376
  830SOL    HW2 2734   3.325   1.041   1.202 -0.2246 -1.9923  0.8823
  831SOL     OW 2735   0.816   0.625   0.887 -0.0164  0.0778  0.6423
  831SOL    HW1 2736   0.788   0.717   0.887  2.6821  0.9795  0.3543
  831SOL    HW2 2737   0.829   0.604   0.795  0.8161 -0.0813  0.7849
  832SOL     OW 2738   2.359   4.335   1.097 -0.0633  0.2112 -0.2890
  832SOL    HW1 2739   2.435   4.356   1.042 -0.4188  3.3895  0.2687
  832SOL    HW2 2740   2.291   4.308   1.035  0.2752  1.3844 -1.1940
  833SOL     OW 2741   5.844   6.852   3.179  0.2976 -0.7435  0.1555
  833SOL    HW1 2742   5.834   6.874   3.086 -0.8203  2.1803  0.8637
  833SOL    HW2 2743   5.781   6.782   3.194 -0.8851  0.0207 -0.9623
  834SOL     OW 2744   0.174   1.374   0.193 -0.0806  0.2813 -0.7425
  834SOL    HW1 2745   0.183   1.302   0.130 -0.1651  0.8456 -1.4122
  834SOL    HW2 2746   0.108   1.431   0.155  0.2756  0.9218 -0.4213
  835SOL     OW 2747   6.110   4.521   2.765 -0.1119  0.3111  0.3924
  835SOL    HW1 2748   6.054   4.461   2.814 -1.2187  1.1947  0.2545
  835SOL    HW2 2749   6.172   4.555   2.830  0.5375 -0.9630  0.4656
  836SOL     OW 2750   4.840   4.185   1.462 -0.0631 -0.7151  0.6526
  836SOL    HW1 2751   4.843   4.236   1.381  2.9532  0.2911  1.2535
  836SOL    HW2 2752   4.889   4.105   1.441  0.8210 -0.4022  1.4449
  837SOL     OW 2753   2.890   4.618   0.686 -0.1177 -0.2341  0.4779
  837SOL    HW1 2754   2.911   4.590   0.776 -0.9862 -0.6467  0.5643
  837SOL    HW2 2755   2.931   4.551   0.631 -1.4958 -1.2774  0.6591
  838SOL     OW 2756   2.473   3.155   1.536 -0.1389 -0.5042  0.2314
  838SOL    HW1 2757   2.560   3.134   1.569  0.2463 -0.5701 -0.7979
  838SOL    HW2 2758   2.425   3.072   1.541 -0.5561 -0.2079  1.9456
  839SOL     OW 2759   3.126   1.723   1.385  0.2309  0.0553  0.1156
  839SOL    HW1 2760   3.216   1.690   1.387 -0.8650 -3.3040  1.8303
  839SOL    HW2 2761   3.086   1.677   1.311 -0.2914  1.0391 -0.2282
  840SOL     OW 2762   4.917   5.182   0.702 -0.1239 -0.3453  0.2374
  840SOL    HW1 2763   4.926   5.276   0.719 -1.7621  0.3129 -2.1535
  840SOL    HW2 2764   4.975   5.165   0.628 -0.4320 -1.0706  0.1528
  841SOL     OW 2765   4.088   0.654   0.109 -0.5196  0.6248  0.6945
  841SOL    HW1 2766   4.102   0.694   0.195  0.3708  2.0776 -0.0694
  841SOL    HW2 2767   4.174   0.659   0.067 -1.2440  1.2755 -0.7930
  842SOL     OW 2768   6.642   6.980   3.311  0.9265  0.3596  0.1681
  842SOL    HW1 2769   6.564   7.026   3.341  1.4793  1.7198 -0.3837
  842SOL    HW2 2770   6.657   6.913   3.377 -1.7527 -1.2006 -0.6303
  843SOL     OW 2771   2.161   3.698   2.585 -0.1753  1.3753  0.2504
  843SOL    HW1 2772   2.135   3.765   2.648 -0.8152 -1.6340  3.5039
  843SOL    HW2 2773   2.215   3.637   2.635  0.6486 -0.4271 -2.5920
  844SOL     OW 2774   1.089   0.734   0.453 -0.7964  0.1160 -0.5139
  844SOL    HW1 2775   1.121   0.799   0.391  1.8039 -0.7805 -0.2280
  844SOL    HW2 2776   1.134   0.755   0.535  1.4547 -2.8733 -0.7939
  845SOL     OW 2777   3.593   3.322   0.988 -0.5093  0.2423  0.1854
  845SOL    HW1 2778   3.645   3.304   0.910 -0.2975 -0.3715  0.4671
  845SOL    HW2 2779   3.587   3.238   1.034  0.5077  0.8757  1.5353
  846SOL     OW 2780   4.237   5.447   3.008  0.3261  0.2760 -0.0796
  846SOL    HW1 2781   4.284   5.376   2.964 -0.5699 -0.1945 -0.2877
  846SOL    HW2 2782   4.155   5.455   2.960 -1.0070 -0.7230  1.9220
  847SOL     OW 2783   5.184   4.029   0.774  0.0678  0.2665  0.6555
  847SOL    HW1 2784   5.233   4.043   0.855  2.7129 -1.0688 -0.5781
  847SOL    HW2 2785   5.236   4.072   0.706  0.1062 -1.9599 -0.8585
  848SOL     OW 2786   2.596   3.403   0.860 -0.0399  0.0496 -0.0733
  848SOL    HW1 2787   2.624   3.311   0.856 -1.4501 -0.4870  1.4029
  848SOL    HW2 2788   2.539   3.414   0.784 -1.4260 -0.8937  0.7863
  849SOL     OW 2789   3.456   3.316   3.035 -0.5426 -0.0736 -0.1869
  849SOL    HW1 2790   3.391   3.311   2.966 -1.0413 -0.2180  0.2870
  849SOL    HW2 2791   3.538   3.335   2.990 -1.1355  1.4885 -0.6676
  850SOL     OW 2792   4.808   3.609   1.327  0.2237 -0.0385  0.3080
  850SOL    HW1 2793   4.890   3.647   1.357 -0.8758  1.7884  1.1731
  850SOL    HW2 2794   4.804   3.523   1.370  1.5305 -0.0493  0.4445
  851SOL     OW 2795   2.787   1.525   1.447  0.1555 -0.0612  0.2008
  851SOL    HW1 2796   2.817   1.458   1.386 -2.4021 -1.4788  0.3808
  851SOL    HW2 2797   2.721   1.575   1.398 -1.2671 -0.6368  1.4449
  852SOL     OW 2798   3.272   2.947   2.354  0.2253  0.6811 -0.0053
  852SOL    HW1 2799   3.252   2.916   2.443  0.8285 -0.6684 -0.3049
  852SOL    HW2 2800   3.368   2.951   2.351  0.4424 -2.3078 -1.4583
  853SOL     OW 2801   4.503   2.468   3.165 -0.4979 -0.6459  0.0408
  853SOL    HW1 2802   4.484   2.383   3.126  0.1309 -1.1708  0.8405
  853SOL    HW2 2803   4.485   2.531   3.096 -0.0691 -1.4936 -0.8576
  854SOL     OW 2804   3.293   2.700   2.912  0.5765  0.1095 -0.4279
  854SOL    HW1 2805   3.259   2.691   2.823  1.8403  1.3734 -1.0966
  854SOL    HW2 2806   3.367   2.639   2.916  1.1974  0.8306 -0.6370
  855SOL     OW 2807   2.873   2.742   1.190  0.0050  0.1509  0.3621
  855SOL    HW1 2808   2.893   2.819   1.244  0.0919  0.2714  0.1584
  855SOL    HW2 2809   2.858   2.672   1.253  3.4497 -0.5868  0.5528
  856SOL     OW 2810   3.989   2.326   2.146  0.6524  0.2923  0.6180
  856SOL    HW1 2811   3.956   2.386   2.212 -1.1075 -1.3189  1.3058
  856SOL    HW2 2812   3.985   2.240   2.187 -0.3647 -0.7571 -1.4713
  857SOL     OW 2813   5.005   6.044   3.014  0.5673  0.3928 -0.2046
  857SOL    HW1 2814   4.967   5.960   3.041  1.3057  0.2546  0.4504
  857SOL    HW2 2815   4.946   6.076   2.946  0.1352 -0.5407 -0.2894
  858SOL     OW 2816   5.061   5.072   2.149  0.3410 -0.4786 -0.8166
  858SOL    HW1 2817   5.138   5.068   2.206  0.2288  0.7610 -0.5274
  858SOL    HW2 2818   5.003   5.003   2.182  0.6308 -0.3236  0.0499
  859SOL     OW 2819   1.553   2.454   1.995  0.2752 -0.7940  0.2716
  859SOL    HW1 2820   1.605   2.442   2.075 -0.4101  1.1960  1.0833
  859SOL    HW2 2821   1.617   2.463   1.925  0.9726 -0.5389  0.9317
  860SOL     OW 2822   0.800   2.953   0.007 -0.2372  0.2960 -0.1868
  860SOL    HW1 2823   0.831   3.038  -0.025 -0.2481  0.4090  0.1039
  860SOL    HW2 2824   0.813   2.956   0.101  1.4993 -0.7297 -0.3476
  861SOL     OW 2825   2.415   4.194   2.604 -0.2435  0.0150  0.6337
  861SOL    HW1 2826   2.397   4.134   2.532 -0.3930 -1.5679  1.9281
  861SOL    HW2 2827   2.439   4.137   2.678  0.9686  1.6109  1.5494
  862SOL     OW 2828   1.413   1.922   0.128 -0.6708  0.1997 -0.2046
  862SOL    HW1 2829   1.321   1.951   0.123 -0.7144  0.0239 -0.4451
  862SOL    HW2 2830   1.441   1.917   0.036 -0.7789 -0.8845 -0.1957
  863SOL     OW 2831   3.082   4.958   1.405 -0.1275 -0.0372  0.6883
  863SOL    HW1 2832   3.063   4.910   1.486 -0.6404 -1.9838 -0.5273
  863SOL    HW2 2833   3.004   4.945   1.350 -0.5345  2.6727  0.4534
  864SOL     OW 2834   0.971   1.794   0.345 -0.0424  0.0337 -0.0359
  864SOL    HW1 2835   0.989   1.868   0.404 -1.1177  0.3391 -0.0748
  864SOL    HW2 2836   1.051   1.786   0.293 -1.1150  3.7434 -2.7546
  865SOL     OW 2837   3.964   2.624   1.829  0.3376 -0.0024  0.1167
  865SOL    HW1 2838   3.875   2.631   1.795  0.1575  1.4797  0.8075
  865SOL    HW2 2839   3.979   2.530   1.839 -0.4583 -0.3678 -1.7543
  866SOL     OW 2840   4.541   4.267   3.129  0.4553 -0.4480  0.5233
  866SOL    HW1 2841   4.591   4.213   3.068  1.4102  1.3419 -0.3600
  866SOL    HW2 2842   4.480   4.315   3.075 -1.0777 -1.3164  1.4137
  867SOL     OW 2843   4.761   3.097   2.927  0.4347  0.3274 -0.6479
  867SOL    HW1 2844   4.840   3.089   2.980  0.6380  1.8142 -0.6915
  867SOL    HW2 2845   4.703   3.028   2.959 -0.0460  2.0182  2.5681
  868SOL     OW 2846   6.530   5.929   3.386  0.7233 -0.3003  0.3601
  868SOL    HW1 2847   6.541   5.867   3.314  0.9725  0.6959 -0.4872
  868SOL    HW2 2848   6.436   5.933   3.401  0.5414  0.5129 -0.8678
  869SOL     OW 2849   5.633   5.862   3.150 -0.3235  0.2805 -0.9813
  869SOL    HW1 2850   5.569   5.818   3.094  1.2966 -1.5652 -1.5263
  869SOL    HW2 2851   5.704   5.887   3.090  1.7173 -2.2536  0.1656
  870SOL     OW 2852   5.352   4.677   2.428 -0.1840 -0.3466 -0.0872
  870SOL    HW1 2853   5.438   4.677   2.471 -0.0535  1.0431 -0.2946
  870SOL    HW2 2854   5.309   4.756   2.461 -2.0042 -1.7485  1.1390
  871SOL     OW 2855   6.510   6.633   3.205 -0.0869  0.1369 -0.6969
  871SOL    HW1 2856   6.573   6.617   3.135  0.4690 -0.6168 -0.0460
  871SOL    HW2 2857   6.459   6.552   3.210 -0.6600  0.4901 -0.7629
  872SOL     OW 2858   2.249   3.014   1.656  0.2264 -0.7522 -0.6970
  872SOL    HW1 2859   2.314   3.047   1.718  0.2757  1.5665 -1.8631
  872SOL    HW2 2860   2.176   2.986   1.711  1.1747 -0.9297  0.5082
  873SOL     OW 2861   6.678   5.444   3.071  0.2309 -0.2869 -0.7015
  873SOL    HW1 2862   6.770   5.422   3.090 -0.2909 -0.3579  2.2701
  873SOL    HW2 2863   6.630   5.364   3.092 -0.9426  1.1738  3.1734
  874SOL     OW 2864   5.827   2.937   3.060 -0.3740 -0.5495  0.3033
  874SOL    HW1 2865   5.795   2.928   2.970  1.4710  1.6433 -0.6841
  874SOL    HW2 2866   5.779   3.012   3.095  1.0158  0.4892  0.0570
  875SOL     OW 2867   4.118   2.911   3.253  0.0770 -0.0678  0.3076
  875SOL    HW1 2868   4.118   2.977   3.323 -2.3267 -0.3795  0.6958
  875SOL    HW2 2869   4.190   2.852   3.276  0.3116  0.6919  1.6616
  876SOL     OW 2870   4.469   5.161   2.108  0.0121 -0.1758  0.2755
  876SOL    HW1 2871   4.479   5.227   2.040 -0.6618  1.6032  1.8104
  876SOL    HW2 2872   4.425   5.088   2.065 -0.1938  0.8027 -1.2299
  877SOL     OW 2873   4.262   5.652   2.509  0.7398  0.1974 -0.1231
  877SOL    HW1 2874   4.277   5.610   2.594  1.1036 -0.6695 -0.6127
  877SOL    HW2 2875   4.173   5.626   2.485  0.5614  0.6088  0.0791
  878SOL     OW 2876   5.387   2.241   2.932 -0.2308 -0.1985 -0.2671
  878SOL    HW1 2877   5.395   2.313   2.870 -1.2468  0.2840  0.1382
  878SOL    HW2 2878   5.460   2.254   2.994 -0.9198  1.0195  0.3253
  879SOL     OW 2879   3.358   6.325   2.751  0.0323 -0.7685  0.3531
  879SOL    HW1 2880   3.384   6.395   2.810 -0.3658 -0.0688 -0.2802
  879SOL    HW2 2881   3.271   6.351   2.719 -1.2518 -2.7658  1.9959
  880SOL     OW 2882   3.705   2.891   3.294 -0.2764  0.0238 -0.5818
  880SOL    HW1 2883   3.616   2.858   3.280 -1.0358 -0.2518  3.6110
  880SOL    HW2 2884   3.693   2.971   3.345  1.9109  1.6232 -2.3559
  881SOL     OW 2885   2.580   3.281   1.860  0.2409  0.1950 -0.0826
  881SOL    HW1 2886   2.675   3.271   1.849  0.1420 -0.2042 -0.6579
  881SOL    HW2 2887   2.545   3.193   1.843 -0.0528 -0.3072  2.6372
  882SOL     OW 2888   4.176   3.093   0.997  0.0438 -0.2985  0.0756
  882SOL    HW1 2889   4.231   3.036   1.051 -0.6307  0.9183  2.1527
  882SOL    HW2 2890   4.133   3.151   1.060 -0.4809  1.4817 -1.8344
  883SOL     OW 2891   1.668   1.365   0.586 -0.7075 -0.1212  0.3772
  883SOL    HW1 2892   1.642   1.292   0.530  3.0150 -0.9610 -0.5508
  883SOL    HW2 2893   1.601   1.368   0.655 -3.8599 -0.9442 -2.4132
  884SOL     OW 2894   3.136   2.550   0.497  0.1202  0.4897 -0.3387
  884SOL    HW1 2895   3.224   2.572   0.526  0.3789  0.5788 -1.1673
  884SOL    HW2 2896   3.108   2.625   0.445  0.8890 -0.8532 -2.9118
  885SOL     OW 2897   1.204   3.774   0.189  0.0809  0.0196 -0.0181
  885SOL    HW1 2898   1.256   3.758   0.110 -0.7116 -1.3917 -0.2789
  885SOL    HW2 2899   1.269   3.790   0.257  0.7963  0.2807 -0.7411
  886SOL     OW 2900   4.691   6.163   3.236 -0.0617  0.3038 -0.2477
  886SOL    HW1 2901   4.732   6.216   3.168 -1.2430 -0.5371 -1.6734
  886SOL    HW2 2902   4.701   6.073   3.205 -2.9920  0.0500 -0.7611
  887SOL     OW 2903   4.764   5.103   3.204  0.1177  0.3552 -0.1044
  887SOL    HW1 2904   4.710   5.042   3.254  1.2727  0.0644  0.8420
  887SOL    HW2 2905   4.724   5.105   3.117  0.0366 -1.7490 -0.1688
  888SOL     OW 2906   2.354   1.599   2.062 -0.8447 -0.2501  0.2073
  888SOL    HW1 2907   2.377   1.528   2.001 -0.6974  1.0120 -1.2568
  888SOL    HW2 2908   2.409   1.672   2.036 -0.2800  0.1376  2.3384
  889SOL     OW 2909   2.788   4.958   0.282 -0.0355  0.5352 -0.1024
  889SOL    HW1 2910   2.720   5.012   0.322 -0.3038  0.1833 -0.0799
  889SOL    HW2 2911   2.799   4.884   0.342  1.2628  1.2268  0.5311
  890SOL     OW 2912   6.202   2.436   2.990  0.2721 -0.2322  0.0556
  890SOL    HW1 2913   6.186   2.530   2.986 -1.4123 -0.3213  2.2934
  890SOL    HW2 2914   6.213   2.408   2.899  0.5364  2.0536 -0.6628
  891SOL     OW 2915   2.165   3.369   0.427  0.4540 -0.1131 -0.6168
  891SOL    HW1 2916   2.168   3.437   0.359  1.6704 -1.6911 -2.2174
  891SOL    HW2 2917   2.071   3.355   0.442  0.1550  0.3072 -1.9337
  892SOL     OW 2918   6.110   4.967   2.556  0.2686  0.0294 -0.5458
  892SOL    HW1 2919   6.200   5.000   2.557 -0.2411  1.4658 -0.0944
  892SOL    HW2 2920   6.120   4.873   2.565  1.7428  0.1263 -0.7883
  893SOL     OW 2921   2.480   1.557   1.182 -0.1279 -0.3627  0.6576
  893SOL    HW1 2922   2.396   1.601   1.170 -0.7619 -1.5431  0.6278
  893SOL    HW2 2923   2.541   1.628   1.203 -0.5563  0.8495 -1.8119
  894SOL     OW 2924   6.052   2.282   1.988 -0.4577  0.0222  0.2211
  894SOL    HW1 2925   6.141   2.316   1.995 -1.1559  1.8255  1.4052
  894SOL    HW2 2926   6.006   2.348   1.936 -0.6481 -1.9967 -2.3179
  895SOL     OW 2927   5.350   3.334   2.697 -0.0871  0.0225 -0.3778
  895SOL    HW1 2928   5.300   3.408   2.663 -1.0993 -0.6849 -0.4977
  895SOL    HW2 2929   5.289   3.260   2.690 -0.9708  0.0224  4.1365
  896SOL     OW 2930   5.012   5.229   3.052  0.3239 -0.7023 -0.0237
  896SOL    HW1 2931   4.963   5.292   3.105 -1.1862 -0.5344 -1.5128
  896SOL    HW2 2932   4.957   5.151   3.052  0.2876 -0.6931 -1.3200
  897SOL     OW 2933   3.728   2.705   2.269  0.1180 -0.1790  0.1096
  897SOL    HW1 2934   3.649   2.743   2.229  1.1906  2.2918  0.1223
  897SOL    HW2 2935   3.792   2.776   2.266  2.2945 -2.0431  0.3115
  898SOL     OW 2936   1.520   4.142   1.244 -0.0258  0.7991 -0.1188
  898SOL    HW1 2937   1.513   4.066   1.302 -0.6966  1.3113  0.4978
  898SOL    HW2 2938   1.599   4.187   1.273 -0.4711  1.1673  0.5574
  899SOL     OW 2939   4.022   3.386   2.458  0.4811  0.0394 -0.0379
  899SOL    HW1 2940   3.927   3.394   2.443  0.5091  1.3864  0.3062
  899SOL    HW2 2941   4.047   3.307   2.411 -0.5931  0.3866 -1.2715
  900SOL     OW 2942   2.627   5.767   1.760 -1.0374 -0.2523 -0.2750
  900SOL    HW1 2943   2.718   5.753   1.736 -0.6601  2.7756 -1.1323
  900SOL    HW2 2944   2.622   5.861   1.781 -3.7109 -0.5644  0.9164
  901SOL     OW 2945   0.542   0.620   0.615 -0.5126 -0.2176  0.4166
  901SOL    HW1 2946   0.537   0.532   0.652 -1.1743  0.1153  1.1306
  901SOL    HW2 2947   0.630   0.624   0.576 -0.4960 -1.2069  0.3167
  902SOL     OW 2948   2.105   0.427   0.591 -0.0358 -1.0662 -0.0702
  902SOL    HW1 2949   2.191   0.470   0.590 -0.1292 -0.8650  0.3270
  902SOL    HW2 2950   2.060   0.466   0.665 -0.5022 -1.1193 -0.3215
  903SOL     OW 2951   2.745   3.949   2.882  0.6257  0.1145  0.2259
  903SOL    HW1 2952   2.697   3.910   2.954 -0.8388 -1.4298 -1.4957
  903SOL    HW2 2953   2.808   3.883   2.855  0.2045  0.0985 -0.7779
  904SOL     OW 2954   4.380   6.456   2.494 -0.1710 -0.4304  0.6445
  904SOL    HW1 2955   4.426   6.374   2.478 -0.9610 -0.8818  0.6072
  904SOL    HW2 2956   4.415   6.488   2.577 -0.0585 -0.9503  0.8021
  905SOL     OW 2957   4.811   2.117   2.415 -0.1661  0.0201 -0.1469
  905SOL    HW1 2958   4.721   2.143   2.436 -0.1489 -0.0532  0.0174
  905SOL    HW2 2959   4.846   2.191   2.365 -0.0892  0.3569  0.3963
  906SOL     OW 2960   3.548   5.390   0.980 -0.3617  0.2312  0.4057
  906SOL    HW1 2961   3.641   5.411   0.987 -0.4547  0.1757  2.5498
  906SOL    HW2 2962   3.520   5.373   1.070 -2.2295 -0.7573 -0.2986
  907SOL     OW 2963   1.794   2.228   1.708 -0.0417  0.6636 -0.3865
  907SOL    HW1 2964   1.714   2.186   1.740 -0.4410  1.7037  0.0100
  907SOL    HW2 2965   1.865   2.171   1.739 -0.5919 -0.0813 -0.4490
  908SOL     OW 2966   3.481   2.727   2.505 -0.2339  0.0767  0.4260
  908SOL    HW1 2967   3.487   2.760   2.595  0.3612  0.7980  0.1370
  908SOL    HW2 2968   3.470   2.806   2.452 -0.5947 -0.3472 -0.1356
  909SOL     OW 2969   6.064   4.249   1.894  0.5858 -0.3792  0.4275
  909SOL    HW1 2970   6.153   4.228   1.864  0.2730 -1.1058 -0.0085
  909SOL    HW2 2971   6.043   4.331   1.849  1.1809  0.0181  0.8489
  910SOL     OW 2972   5.208   5.582   3.332 -0.0576 -0.1309  0.4068
  910SOL    HW1 2973   5.242   5.633   3.406 -0.4015 -0.2165  0.6253
  910SOL    HW2 2974   5.283   5.573   3.273  0.4345 -0.6966  1.0940
  911SOL     OW 2975   5.918   5.847   2.420 -0.1128 -0.3262 -0.3132
  911SOL    HW1 2976   5.911   5.900   2.341 -1.4765  1.3947  0.9016
  911SOL    HW2 2977   5.868   5.768   2.400 -0.0555 -0.1261 -1.3211
  912SOL     OW 2978   1.320   1.474   1.242  0.1673  0.2343 -0.1753
  912SOL    HW1 2979   1.312   1.379   1.240 -0.2892  0.1794  1.8993
  912SOL    HW2 2980   1.405   1.493   1.202  0.6656 -1.1046  0.2281
  913SOL     OW 2981   5.897   4.280   2.648  0.1855 -0.0110  0.1326
  913SOL    HW1 2982   5.923   4.337   2.575  0.0240  0.5954  0.5390
  913SOL    HW2 2983   5.923   4.329   2.726  2.9255 -1.8350  0.4929
  914SOL     OW 2984   5.073   4.573   1.677 -0.6941 -0.2537 -0.5506
  914SOL    HW1 2985   5.161   4.575   1.639 -0.0750 -1.1981  0.7642
  914SOL    HW2 2986   5.084   4.609   1.765 -1.2879 -1.8299  0.2060
  915SOL     OW 2987   2.696   5.760   2.834  0.0416 -0.3924 -0.1560
  915SOL    HW1 2988   2.767   5.823   2.824  0.2623 -0.3604  1.3211
  915SOL    HW2 2989   2.703   5.703   2.758  1.5243 -0.2600 -0.1425
  916SOL     OW 2990   4.842   4.281   3.238 -0.2277 -0.1851  0.0352
  916SOL    HW1 2991   4.774   4.283   3.170  0.2905  0.7311 -0.4747
  916SOL    HW2 2992   4.894   4.359   3.222  1.1332 -1.0160  0.2471
  917SOL     OW 2993   3.987   1.322   0.467 -0.0948  0.6945 -0.2262
  917SOL    HW1 2994   3.977   1.336   0.561 -0.2779  0.4547 -0.2065
  917SOL    HW2 2995   4.081   1.317   0.453 -0.0809 -0.9017  0.2055
  918SOL     OW 2996   3.448   5.107   0.811 -0.3752  0.5189 -0.1999
  918SOL    HW1 2997   3.380   5.132   0.748 -0.9319  0.7687  0.4838
  918SOL    HW2 2998   3.413   5.135   0.896  0.1216 -0.2968  0.2867
  919SOL     OW 2999   3.513   5.767   1.447  0.9062 -0.6084 -0.2861
  919SOL    HW1 3000   3.550   5.713   1.516 -0.3795  0.4876  1.3551
  919SOL    HW2 3001   3.586   5.821   1.417  1.3575 -0.6471  0.7020
  920SOL     OW 3002   7.038   3.008   3.326  0.7653 -0.1353  0.5680
  920SOL    HW1 3003   7.080   3.094   3.328  1.1391 -0.2818 -0.2647
  920SOL    HW2 3004   7.111   2.946   3.323  0.5580 -0.3622 -1.9124
  921SOL     OW 3005   2.596   2.119   1.691  0.3584  0.1176 -0.1300
  921SOL    HW1 3006   2.533   2.159   1.751 -0.7079 -1.4908 -0.1184
  921SOL    HW2 3007   2.622   2.037   1.733 -1.5995 -1.8619 -2.4326
  922SOL     OW 3008   2.885   5.125   1.127  0.1459  0.2095  0.3546
  922SOL    HW1 3009   2.875   5.053   1.066 -1.0988  1.9038 -1.5788
  922SOL    HW2 3010   2.957   5.177   1.091 -1.7698  2.2062 -0.8412
  923SOL     OW 3011   2.203   2.814   1.404 -0.2977 -0.2356  0.8412
  923SOL    HW1 3012   2.167   2.741   1.355  0.2344 -0.5946  0.9723
  923SOL    HW2 3013   2.128   2.854   1.448 -0.7069 -0.2042  0.1199
  924SOL     OW 3014   6.559   4.605   3.344 -0.1086 -0.7540 -0.6081
  924SOL    HW1 3015   6.510   4.679   3.308 -0.1380 -1.9560 -3.2278
  924SOL    HW2 3016   6.504   4.572   3.415  0.8106  2.8496  2.0941
  925SOL     OW 3017   1.662   5.129   2.082  0.0271  0.5342  0.4585
  925SOL    HW1 3018   1.683   5.217   2.113  0.5090  0.7825 -0.5347
  925SOL    HW2 3019   1.605   5.093   2.150  0.9390  1.0948  1.5537
  926SOL     OW 3020   6.234   4.081   2.639 -0.3669  0.7043 -0.1229
  926SOL    HW1 3021   6.159   4.117   2.590 -0.8354  0.9928  0.7793
  926SOL    HW2 3022   6.262   4.152   2.696 -0.7101 -0.0422  1.0167
  927SOL     OW 3023   5.830   4.832   2.142 -0.2066 -0.1331  0.1101
  927SOL    HW1 3024   5.793   4.903   2.195 -1.3523 -0.2374 -0.5188
  927SOL    HW2 3025   5.888   4.876   2.080 -0.4407  0.1882  0.1204
  928SOL     OW 3026   4.017   5.144   3.123  0.2377 -0.4882  0.3303
  928SOL    HW1 3027   4.109   5.114   3.120  0.2552 -0.6491  1.7515
  928SOL    HW2 3028   4.010   5.190   3.207 -1.1239 -0.9842  0.5101
  929SOL     OW 3029   4.723   2.422   2.610  0.7427 -0.5641  0.2704
  929SOL    HW1 3030   4.685   2.505   2.639  3.2260  0.2906  1.3600
  929SOL    HW2 3031   4.688   2.410   2.522 -0.7300  0.9401  0.5817
  930SOL     OW 3032   6.275   3.925   3.063  0.4932  0.1273 -0.4171
  930SOL    HW1 3033   6.286   3.881   2.979 -0.2175  0.1075 -0.5110
  930SOL    HW2 3034   6.352   3.901   3.114  0.9617  0.1998 -1.0908
  931SOL     OW 3035   6.274   4.841   3.073  0.1571 -0.0060 -0.3012
  931SOL    HW1 3036   6.250   4.877   2.988  0.4654 -0.2967 -0.5165
  931SOL    HW2 3037   6.201   4.864   3.131  0.6505  1.5292 -0.2668
  932SOL     OW 3038   2.008   3.396   0.787  0.1600 -0.6167 -0.0511
  932SOL    HW1 3039   1.938   3.441   0.834  1.8992  0.7937  1.3502
  932SOL    HW2 3040   2.038   3.461   0.723  0.6629 -0.9274 -0.1307
  933SOL     OW 3041   2.485   4.901   2.810  0.4914 -0.3069 -0.0106
  933SOL    HW1 3042   2.482   4.996   2.815 -0.0212 -0.3036 -0.2543
  933SOL    HW2 3043   2.481   4.872   2.902  0.2145 -0.1000  0.0450
  934SOL     OW 3044   5.701   3.666   1.459 -0.0168 -0.1841 -0.0366
  934SOL    HW1 3045   5.646   3.587   1.464  0.8775 -0.7793  0.7297
  934SOL    HW2 3046   5.643   3.738   1.481 -0.8582 -0.6143 -0.7633
  935SOL     OW 3047   2.849   2.413   3.249  0.1054 -0.2692 -0.2818
  935SOL    HW1 3048   2.915   2.471   3.212  1.2292 -0.6482  1.0400
  935SOL    HW2 3049   2.767   2.463   3.245  0.5903  0.4581 -1.3370
  936SOL     OW 3050   4.203   6.370   3.306  0.3011 -0.7439  0.1499
  936SOL    HW1 3051   4.178   6.403   3.393  1.3603  0.9983 -0.1692
  936SOL    HW2 3052   4.286   6.414   3.287  0.8402 -2.2608 -1.1188
  937SOL     OW 3053   2.679   3.502   1.096 -0.5308 -0.2143 -0.0694
  937SOL    HW1 3054   2.686   3.485   1.002  0.0943 -1.3237  0.1681
  937SOL    HW2 3055   2.716   3.424   1.138 -3.2172 -0.9371  1.1491
  938SOL     OW 3056   2.711   4.063   2.041 -0.0265 -0.2761  0.0536
  938SOL    HW1 3057   2.638   4.002   2.032 -1.4328  1.3429 -0.2323
  938SOL    HW2 3058   2.669   4.148   2.053  1.8395  0.6702  0.3158
  939SOL     OW 3059   3.256   2.574   0.115  0.4004 -0.1394  0.2163
  939SOL    HW1 3060   3.302   2.577   0.031  0.4458 -1.2260  0.1917
  939SOL    HW2 3061   3.228   2.664   0.130  0.2659  0.0515 -1.0421
  940SOL     OW 3062   5.476   0.877   1.173  0.0498 -0.4262 -0.0715
  940SOL    HW1 3063   5.482   0.971   1.193 -2.4273 -0.5631  1.6987
  940SOL    HW2 3064   5.457   0.874   1.079  1.8758  0.6941 -0.5416
  941SOL     OW 3065   3.466   4.694   2.795  0.4550 -0.0007  0.0656
  941SOL    HW1 3066   3.496   4.777   2.831  0.2185 -0.5150  1.5330
  941SOL    HW2 3067   3.375   4.687   2.824  1.0052 -1.5990  1.6299
  942SOL     OW 3068   3.527   2.718   0.566 -0.3757  0.5447 -0.1237
  942SOL    HW1 3069   3.599   2.661   0.596 -1.3600 -0.0249  1.2739
  942SOL    HW2 3070   3.499   2.679   0.484  1.6899  1.5035 -1.3607
  943SOL     OW 3071   1.699   1.874   0.206  0.0305 -0.5892  0.2669
  943SOL    HW1 3072   1.603   1.871   0.197 -0.0181 -1.7042  0.9479
  943SOL    HW2 3073   1.716   1.838   0.294  1.0753 -0.4582  0.1298
  944SOL     OW 3074   6.641   5.711   3.206  0.0418  0.1356  0.6736
  944SOL    HW1 3075   6.629   5.628   3.160 -0.1237  0.5800 -0.1090
  944SOL    HW2 3076   6.683   5.768   3.142 -0.8676  1.0018  0.8213
  945SOL     OW 3077   4.136   4.416   1.354  0.4258  0.2201  0.2136
  945SOL    HW1 3078   4.215   4.404   1.406 -0.5085 -0.5657  1.5429
  945SOL    HW2 3079   4.104   4.327   1.337  0.2782  0.4950 -1.0524
  946SOL     OW 3080   4.450   1.890   0.536  0.2633  0.3458 -0.6065
  946SOL    HW1 3081   4.492   1.976   0.544 -0.3349  0.6709 -0.8483
  946SOL    HW2 3082   4.502   1.832   0.591  0.9230  0.7721 -0.7695
  947SOL     OW 3083   4.428   5.305   1.277  0.5465  0.6501 -0.4689
  947SOL    HW1 3084   4.504   5.294   1.334  0.5921 -0.1499 -0.6758
  947SOL    HW2 3085   4.397   5.216   1.261  0.4104  0.8812 -1.5275
  948SOL     OW 3086   4.696   4.944   2.015 -0.3110 -0.3485 -0.7741
  948SOL    HW1 3087   4.630   4.921   1.950  0.3128  0.6318 -1.7883
  948SOL    HW2 3088   4.687   5.039   2.026 -0.1148 -0.4411  0.2471
  949SOL     OW 3089   3.923   0.466   0.096 -0.4529  0.3099 -0.3215
  949SOL    HW1 3090   3.839   0.510   0.101 -0.4436  0.5460 -1.6977
  949SOL    HW2 3091   3.988   0.536   0.102 -0.3645  0.1756  0.3061
  950SOL     OW 3092   1.300   5.393   1.209 -0.3160  0.4167 -0.3697
  950SOL    HW1 3093   1.205   5.385   1.206 -0.2622  0.1547 -2.3329
  950SOL    HW2 3094   1.330   5.360   1.125  1.3642  2.5934 -0.7098
  951SOL     OW 3095   5.518   5.210   1.117 -0.8624 -0.0353 -0.9668
  951SOL    HW1 3096   5.574   5.250   1.050  0.1663 -1.0035 -0.6986
  951SOL    HW2 3097   5.432   5.250   1.102 -0.3110  0.8504 -1.9239
  952SOL     OW 3098   5.444   2.448   1.522 -0.0697 -0.0337 -0.4258
  952SOL    HW1 3099   5.364   2.465   1.572  0.2233  1.4565 -0.4178
  952SOL    HW2 3100   5.515   2.455   1.585  0.1223 -0.6742 -0.5643
  953SOL     OW 3101   3.686   5.804   2.634  1.0118 -0.9738 -0.8315
  953SOL    HW1 3102   3.636   5.860   2.693  0.9989 -1.7130 -0.1127
  953SOL    HW2 3103   3.777   5.834   2.642  1.2746 -2.0254  0.7830
  954SOL     OW 3104   3.050   3.490   2.606 -0.5710  0.0914 -0.7686
  954SOL    HW1 3105   3.122   3.498   2.544  1.6274 -2.0253  1.2914
  954SOL    HW2 3106   2.990   3.427   2.565  0.1640 -0.2507 -1.3448
  955SOL     OW 3107   5.202   2.807   1.763  0.3719 -0.2400  0.2067
  955SOL    HW1 3108   5.278   2.774   1.811  1.3575 -0.0287 -1.1406
  955SOL    HW2 3109   5.129   2.754   1.795  1.4928 -2.0997 -0.1584
  956SOL     OW 3110   3.767   6.415   2.521 -0.0078  0.5583 -0.3814
  956SOL    HW1 3111   3.693   6.355   2.527 -0.3226  1.0434  1.4532
  956SOL    HW2 3112   3.728   6.499   2.494  0.1103  0.4410 -0.9169
  957SOL     OW 3113   2.117   4.505   0.329 -0.1017  0.4405 -0.0955
  957SOL    HW1 3114   2.023   4.500   0.311 -0.2627  1.7170  0.2714
  957SOL    HW2 3115   2.123   4.559   0.408  0.9280  0.0490  0.1111
  958SOL     OW 3116   2.792   3.313   1.234 -0.2322  0.8457  0.2513
  958SOL    HW1 3117   2.834   3.228   1.226 -0.5536  0.7876 -1.1992
  958SOL    HW2 3118   2.841   3.359   1.302 -1.0201 -1.0374  2.2191
  959SOL     OW 3119   2.357   0.170   0.160  0.3020 -0.3272  0.3262
  959SOL    HW1 3120   2.304   0.110   0.107 -1.5587 -0.8827  2.6391
  959SOL    HW2 3121   2.336   0.146   0.251 -0.8139  4.0506  1.4203
  960SOL     OW 3122   5.712   5.591   1.294 -0.1932 -0.0517 -0.7058
  960SOL    HW1 3123   5.705   5.684   1.318 -0.4278 -0.0866 -0.6381
  960SOL    HW2 3124   5.629   5.571   1.252 -0.5279 -0.4865  0.1603
  961SOL     OW 3125   6.591   5.055   2.829  0.2963  0.2374  0.7685
  961SOL    HW1 3126   6.614   5.063   2.922  1.1434 -1.3959  0.7376
  961SOL    HW2 3127   6.583   4.961   2.815  1.9977  0.3195 -1.2295
  962SOL     OW 3128   1.763   3.371   0.373  0.1844  0.4038  0.3506
  962SOL    HW1 3129   1.824   3.431   0.329 -1.6880  1.1895 -1.3588
  962SOL    HW2 3130   1.818   3.299   0.404  2.3812  2.4507  1.5597
  963SOL     OW 3131   3.919   3.804   2.128  0.3528 -0.9205 -0.0367
  963SOL    HW1 3132   3.882   3.782   2.042 -0.5796  0.7180 -0.0825
  963SOL    HW2 3133   3.846   3.791   2.189  0.1861  0.6166  0.1160
  964SOL     OW 3134   4.540   4.313   1.276 -0.2872 -0.0512  0.0158
  964SOL    HW1 3135   4.549   4.253   1.350 -0.9756 -1.3748 -0.9328
  964SOL    HW2 3136   4.567   4.262   1.200 -1.6350  0.5774 -0.9299
  965SOL     OW 3137   6.079   3.202   1.891 -0.0984  0.5240  0.0258
  965SOL    HW1 3138   6.094   3.286   1.935 -1.3780 -0.8422  3.3419
  965SOL    HW2 3139   5.984   3.193   1.888  0.0213 -1.1539  0.4789
  966SOL     OW 3140   3.256   4.172   0.616 -0.2103 -0.0472  0.0726
  966SOL    HW1 3141   3.223   4.188   0.528  0.7183  0.0872 -0.2659
  966SOL    HW2 3142   3.219   4.242   0.669 -0.6835 -0.0625 -0.2371
  967SOL     OW 3143   1.288   3.407   0.168 -0.6619  0.4652  0.5384
  967SOL    HW1 3144   1.217   3.469   0.183  0.5461  1.6329  1.6819
  967SOL    HW2 3145   1.346   3.418   0.243  0.6131 -0.6351 -0.2369
  968SOL     OW 3146   4.220   5.837   3.260 -0.4141  0.2353  0.0252
  968SOL    HW1 3147   4.140   5.785   3.262 -0.6572  0.5977 -0.1784
  968SOL    HW2 3148   4.290   5.774   3.278 -0.7266 -0.1173  0.0156
  969SOL     OW 3149   3.923   3.490   0.390 -0.1556  0.1951  0.3127
  969SOL    HW1 3150   3.978   3.560   0.355  0.5826 -1.0829 -1.2367
  969SOL    HW2 3151   3.957   3.476   0.479  0.9529  0.5486 -0.0331
  970SOL     OW 3152   3.400   1.925   1.754  0.3426 -0.8860 -0.1413
  970SOL    HW1 3153   3.374   2.017   1.763  2.6392 -0.1330 -0.5713
  970SOL    HW2 3154   3.317   1.877   1.755 -0.8610  1.0597  1.2552
  971SOL     OW 3155   2.187   4.543   2.549  0.8816  0.9484 -0.0226
  971SOL    HW1 3156   2.222   4.615   2.497 -0.9554  0.0537 -2.6704
  971SOL    HW2 3157   2.183   4.469   2.489 -1.6971 -0.0494  1.2393
  972SOL     OW 3158   4.839   5.689   1.900 -0.3293 -0.6907  0.2152
  972SOL    HW1 3159   4.885   5.691   1.816 -1.6525 -0.0675 -0.5275
  972SOL    HW2 3160   4.840   5.780   1.930  1.6651 -1.1659  1.7832
  973SOL     OW 3161   0.895   4.280   0.077 -0.0897  0.5009  0.1215
  973SOL    HW1 3162   0.871   4.276   0.170  3.1909 -0.7435  1.0873
  973SOL    HW2 3163   0.951   4.202   0.064  0.5735  1.3204 -2.5678
  974SOL     OW 3164   6.347   2.210   2.614  0.3325 -0.9665 -0.0408
  974SOL    HW1 3165   6.390   2.202   2.699  0.6143 -0.7097 -0.1566
  974SOL    HW2 3166   6.278   2.144   2.616  1.1567 -1.8631 -0.1112
  975SOL     OW 3167   4.211   3.561   2.490 -0.2425 -0.8350  0.3756
  975SOL    HW1 3168   4.187   3.651   2.513  0.3273 -0.7136  0.5005
  975SOL    HW2 3169   4.127   3.515   2.486 -0.6917  0.0426 -1.2236
  976SOL     OW 3170   5.174   3.532   2.443  0.1324 -0.6453 -0.6871
  976SOL    HW1 3171   5.095   3.478   2.448 -1.1527  0.9223 -2.4595
  976SOL    HW2 3172   5.188   3.544   2.349  2.4156 -0.7328 -0.3944
  977SOL     OW 3173   4.081   4.539   0.575  0.1923  0.3029  0.0444
  977SOL    HW1 3174   4.045   4.529   0.487  0.5725 -2.6332  0.1368
  977SOL    HW2 3175   4.174   4.559   0.560 -0.1039  1.6452 -0.1692
  978SOL     OW 3176   4.836   2.380   0.820  0.1521  0.1146 -0.5326
  978SOL    HW1 3177   4.801   2.292   0.805 -0.0231  0.1870 -0.5471
  978SOL    HW2 3178   4.784   2.415   0.892  0.5880 -0.0011 -0.1529
  979SOL     OW 3179   1.848   0.774   0.614  0.1497 -0.3301 -0.0363
  979SOL    HW1 3180   1.857   0.863   0.648  0.7285 -1.1952  2.2775
  979SOL    HW2 3181   1.917   0.767   0.547  1.4546  0.3800  1.1643
  980SOL     OW 3182   3.252   4.810   0.136 -0.4058  0.6870  0.0420
  980SOL    HW1 3183   3.340   4.846   0.135 -0.5822  1.2432  1.7174
  980SOL    HW2 3184   3.194   4.887   0.136 -0.8138  0.4255  1.8973
  981SOL     OW 3185   5.396   5.859   2.515 -0.1862 -0.0050 -0.2045
  981SOL    HW1 3186   5.444   5.877   2.434  0.2219 -0.0460  0.0247
  981SOL    HW2 3187   5.439   5.780   2.550  0.6591  0.8864  0.8427
  982SOL     OW 3188   4.720   1.489   1.517  0.4497  0.3212 -0.5236
  982SOL    HW1 3189   4.734   1.463   1.608  0.8791 -2.6482 -1.3150
  982SOL    HW2 3190   4.681   1.576   1.522  0.5526  0.2950  2.4746
  983SOL     OW 3191   1.605   5.898   1.795 -0.2561 -0.0061  0.1325
  983SOL    HW1 3192   1.558   5.948   1.862 -2.1199  1.2418 -1.9800
  983SOL    HW2 3193   1.665   5.842   1.845 -0.8303  1.5532  2.7700
  984SOL     OW 3194   5.445   4.349   1.010 -0.2750  0.3142 -0.1458
  984SOL    HW1 3195   5.459   4.294   1.087 -0.6938  0.9555  0.4044
  984SOL    HW2 3196   5.532   4.383   0.989 -0.3581  1.2513  0.9218
  985SOL     OW 3197   4.026   4.052   0.091 -0.2036 -0.1241  0.1338
  985SOL    HW1 3198   3.994   4.021   0.007 -0.0682 -0.2394  0.1257
  985SOL    HW2 3199   3.963   4.120   0.116 -0.3951 -0.2746  0.0665
  986SOL     OW 3200   4.365   2.520   1.643 -0.1304  0.3208  0.6650
  986SOL    HW1 3201   4.297   2.469   1.599  0.0995  0.6067 -0.0317
  986SOL    HW2 3202   4.360   2.492   1.734 -0.2712 -0.6506  0.3679
  987SOL     OW 3203   5.575   6.226   2.716  0.1326  0.0247 -0.1673
  987SOL    HW1 3204   5.596   6.171   2.640 -3.3551 -0.6222 -0.8480
  987SOL    HW2 3205   5.576   6.165   2.790  2.9707  0.5435  0.3195
  988SOL     OW 3206   3.812   5.272   0.759 -0.3797  0.0768 -0.1404
  988SOL    HW1 3207   3.869   5.200   0.732 -0.8598 -0.2902 -0.1749
  988SOL    HW2 3208   3.737   5.268   0.700 -1.0990 -0.2996  0.7771
  989SOL     OW 3209   5.386   5.537   2.749  0.3241  0.3053 -0.3590
  989SOL    HW1 3210   5.334   5.492   2.683 -0.0605  1.8182 -1.1455
  989SOL    HW2 3211   5.322   5.585   2.801  0.6537 -0.6348  0.9650
  990SOL     OW 3212   1.893   5.522   1.437 -0.1833 -0.9774 -0.1962
  990SOL    HW1 3213   1.886   5.501   1.530  0.1951 -0.7129 -0.1055
  990SOL    HW2 3214   1.862   5.612   1.431  0.7238 -0.6525 -0.1690
  991SOL     OW 3215   3.964   6.626   2.752 -0.6272 -0.3449 -0.7749
  991SOL    HW1 3216   4.012   6.690   2.805 -0.0377  1.3141 -3.1145
  991SOL    HW2 3217   4.017   6.547   2.755 -0.5704 -0.2722  0.9770
  992SOL     OW 3218   4.042   4.668   1.402 -0.5451 -0.4472  0.1450
  992SOL    HW1 3219   4.126   4.712   1.388  0.2315 -1.5924  0.9361
  992SOL    HW2 3220   4.060   4.577   1.380 -1.8933 -0.5216 -0.7055
  993SOL     OW 3221   2.052   4.263   1.810 -0.4056  0.1433 -0.2268
  993SOL    HW1 3222   2.004   4.280   1.729 -0.0898 -0.6362 -0.5905
  993SOL    HW2 3223   2.005   4.313   1.876  0.8531  2.9695 -1.2926
  994SOL     OW 3224   2.269   3.097   0.590 -0.2507 -0.6185  0.0686
  994SOL    HW1 3225   2.236   3.015   0.552 -0.2631  0.0583 -1.4250
  994SOL    HW2 3226   2.224   3.166   0.542 -0.7672  0.3044  1.7911
  995SOL     OW 3227   4.661   5.064   2.948  0.5651 -0.4860  0.0754
  995SOL    HW1 3228   4.677   5.123   2.875 -0.5451  0.9491  0.9316
  995SOL    HW2 3229   4.590   5.008   2.919  1.4470 -1.2641 -0.6462
  996SOL     OW 3230   2.418   0.787   0.205  0.0159  0.3028 -0.4498
  996SOL    HW1 3231   2.493   0.751   0.158  0.2430 -0.7823  0.6957
  996SOL    HW2 3232   2.452   0.862   0.252  0.7131 -0.8996  1.0415
  997SOL     OW 3233   4.296   2.126   2.026  0.6908  0.4893 -0.3531
  997SOL    HW1 3234   4.221   2.140   2.084  0.8631 -1.2466  0.3429
  997SOL    HW2 3235   4.260   2.082   1.950  0.5294  2.4453 -1.4893
  998SOL     OW 3236   4.474   3.381   2.507 -0.6970 -0.0875 -0.3537
  998SOL    HW1 3237   4.434   3.465   2.483  2.2304  1.1608 -1.3258
  998SOL    HW2 3238   4.568   3.395   2.494 -0.0771 -3.4855 -0.3395
  999SOL     OW 3239   3.281   5.115   3.238 -0.2123  0.1271 -0.1487
  999SOL    HW1 3240   3.261   5.197   3.284  0.4491  0.4854 -0.4973
  999SOL    HW2 3241   3.206   5.102   3.179  0.1361  0.9993 -0.8038
 1000SOL     OW 3242   3.718   4.334   0.586 -0.0156  0.0136 -0.2510
 1000SOL    HW1 3243   3.766   4.340   0.503  0.2178  0.6117 -0.0835
 1000SOL    HW2 3244   3.701   4.241   0.598 -1.2171  0.0189 -1.6315
 1001SOL     OW 3245   3.322   5.119   2.838 -0.1602 -0.3922 -0.2883
 1001SOL    HW1 3246   3.276   5.036   2.828 -1.3457  0.2512 -0.3706
 1001SOL    HW2 3247   3.262   5.173   2.891  0.7532  0.2790  0.0799
 1002SOL     OW 3248   3.941   5.285   3.356  0.1555  0.1297 -0.6728
 1002SOL    HW1 3249   3.859   5.266   3.402  0.3187 -0.5128 -0.6261
 1002SOL    HW2 3250   3.950   5.380   3.360 -0.5542  0.1986 -0.6249
 1003SOL     OW 3251   3.129   6.492   2.703  0.1648 -0.0004 -0.1639
 1003SOL    HW1 3252   3.077   6.561   2.663 -3.2460 -2.0402  0.3876
 1003SOL    HW2 3253   3.219   6.509   2.673 -0.8781  3.2356 -1.8858
 1004SOL     OW 3254   4.264   2.721   1.133  0.1693  0.4293  0.4395
 1004SOL    HW1 3255   4.225   2.743   1.218  0.7223  0.0256  0.7975
 1004SOL    HW2 3256   4.191   2.684   1.083 -0.2057  0.8521  0.6601
 1005SOL     OW 3257   2.554   4.224   3.042 -0.0959 -0.0711 -0.0487
 1005SOL    HW1 3258   2.565   4.281   3.118  3.3659 -1.1516  0.3964
 1005SOL    HW2 3259   2.464   4.192   3.049 -0.8219  2.1378  1.9082
 1006SOL     OW 3260   1.502   5.625   2.139  0.2997  0.2413  0.8428
 1006SOL    HW1 3261   1.465   5.698   2.088  2.6739 -1.1083 -3.2868
 1006SOL    HW2 3262   1.593   5.649   2.153  0.6035 -1.0708  1.2616
 1007SOL     OW 3263   2.801   0.992   0.461 -0.3781  0.0937  0.0335
 1007SOL    HW1 3264   2.832   1.051   0.529 -2.0145  0.8157  0.1835
 1007SOL    HW2 3265   2.850   0.911   0.476  1.2869  1.1148  0.3411
 1008SOL     OW 3266   3.652   3.167   3.345 -0.1605 -0.1614  0.4630
 1008SOL    HW1 3267   3.668   3.241   3.287 -0.4617 -0.2049  0.3235
 1008SOL    HW2 3268   3.635   3.206   3.431 -0.1811 -0.0753  0.4193
 1009SOL     OW 3269   5.078   1.526   1.963 -0.0325  0.3462 -0.7176
 1009SOL    HW1 3270   5.129   1.445   1.957 -0.5632 -0.0562 -0.0029
 1009SOL    HW2 3271   5.120   1.586   1.901 -0.2345 -0.7922 -1.9768
 1010SOL     OW 3272   3.583   5.565   1.623  0.1829 -0.2612 -0.2003
 1010SOL    HW1 3273   3.570   5.521   1.707 -0.1351  3.7498  2.0882
 1010SOL    HW2 3274   3.656   5.517   1.583  0.0319 -2.6541  2.0796
 1011SOL     OW 3275   6.805   6.996   3.089  0.2810  0.9402  0.3043
 1011SOL    HW1 3276   6.749   6.998   3.167  1.5639 -0.6034  1.3383
 1011SOL    HW2 3277   6.887   6.955   3.119  0.2008 -1.3874 -2.2335
 1012SOL     OW 3278   4.359   2.354   2.354 -0.5083  0.0118  0.2844
 1012SOL    HW1 3279   4.284   2.349   2.413 -1.2772 -0.6974 -0.7193
 1012SOL    HW2 3280   4.322   2.342   2.266  0.4531  2.2328 -0.4811
 1013SOL     OW 3281   2.362   1.964   2.508  0.8391  0.5660 -0.3249
 1013SOL    HW1 3282   2.341   2.013   2.587  0.2905 -1.4250  0.8402
 1013SOL    HW2 3283   2.428   1.900   2.536 -2.6415 -3.3778 -0.1178
 1014SOL     OW 3284   5.756   3.005   2.382 -0.3072 -0.6255 -0.4313
 1014SOL    HW1 3285   5.700   2.943   2.428 -0.3237  0.4282  1.0529
 1014SOL    HW2 3286   5.762   3.081   2.441 -1.5127  1.4411 -2.7845
 1015SOL     OW 3287   1.441   2.932   1.066 -0.0529  0.6739 -0.2497
 1015SOL    HW1 3288   1.522   2.910   1.112 -0.3075  1.0095  0.3650
 1015SOL    HW2 3289   1.372   2.887   1.115 -0.0272 -1.7083 -2.2011
 1016SOL     OW 3290   3.876   3.787   3.164 -0.5697  0.2306 -0.2023
 1016SOL    HW1 3291   3.962   3.751   3.187  0.3130  2.4779  0.2282
 1016SOL    HW2 3292   3.834   3.717   3.113  0.2720 -2.1037  2.0537
 1017SOL     OW 3293   2.579   5.192   1.054 -0.3299  0.1013  0.5153
 1017SOL    HW1 3294   2.564   5.101   1.081 -0.0864  0.1178  0.6998
 1017SOL    HW2 3295   2.673   5.205   1.062 -0.3681  0.3812  0.5209
 1018SOL     OW 3296   5.357   2.519   3.133  0.2052  0.0208  0.0359
 1018SOL    HW1 3297   5.359   2.582   3.061  1.4806 -0.9042 -0.7759
 1018SOL    HW2 3298   5.396   2.567   3.207 -0.2590  0.6803 -0.1398
 1019SOL     OW 3299   4.035   2.993   1.555  0.1642  0.0767  0.0406
 1019SOL    HW1 3300   3.953   3.034   1.582  0.7717  1.1088  0.3303
 1019SOL    HW2 3301   4.009   2.906   1.525 -1.5062  1.4354 -2.8681
 1020SOL     OW 3302   4.444   3.373   3.064 -0.2057  0.3034 -0.2876
 1020SOL    HW1 3303   4.431   3.391   2.971 -0.3070 -1.1270 -0.5738
 1020SOL    HW2 3304   4.401   3.289   3.078  0.7481 -0.0233  0.8233
 1021SOL     OW 3305   2.207   2.088   2.746  0.0741 -0.0299  0.1348
 1021SOL    HW1 3306   2.148   2.164   2.743  0.1065  0.0546  1.2596
 1021SOL    HW2 3307   2.151   2.016   2.774 -0.2720 -0.7715 -2.2672
 1022SOL     OW 3308   3.723   1.626   1.570  0.4729  0.1595  0.2383
 1022SOL    HW1 3309   3.787   1.597   1.635 -0.6627 -2.6667  0.2494
 1022SOL    HW2 3310   3.656   1.671   1.621  1.1290  0.7884  0.5677
 1023SOL     OW 3311   1.480   3.376   0.382 -0.0756 -0.2846 -0.0123
 1023SOL    HW1 3312   1.467   3.310   0.450  0.8532 -1.3867 -0.8803
 1023SOL    HW2 3313   1.572   3.367   0.356  0.5929  2.4945  0.9963
 1024SOL     OW 3314   1.299   1.998   1.065 -0.5199  0.2693 -0.1060
 1024SOL    HW1 3315   1.255   1.978   0.982 -0.1508  0.7256 -0.4155
 1024SOL    HW2 3316   1.383   1.952   1.058 -0.3136  0.6544 -0.1654
 1025SOL     OW 3317   3.282   5.402   2.136 -0.1111 -0.0652 -0.0265
 1025SOL    HW1 3318   3.213   5.392   2.070  0.7910  1.1847 -1.2208
 1025SOL    HW2 3319   3.256   5.479   2.186 -0.6826 -0.8854  0.9813
 1026SOL     OW 3320   1.968   2.905   1.494  0.5606 -0.0111  0.3404
 1026SOL    HW1 3321   1.909   2.976   1.470 -0.1616  0.2003  2.5107
 1026SOL    HW2 3322   1.934   2.873   1.578  1.5982 -2.1022  0.0337
 1027SOL     OW 3323   6.031   1.736   1.853 -0.3140 -0.1869  0.2196
 1027SOL    HW1 3324   6.010   1.821   1.892  0.5278 -0.3351  1.0158
 1027SOL    HW2 3325   6.126   1.728   1.862 -0.0799 -0.2549 -1.8045
 1028SOL     OW 3326   3.347   5.182   1.621  0.4908 -0.0357  0.0258
 1028SOL    HW1 3327   3.399   5.121   1.569 -1.1452 -1.6326  0.1590
 1028SOL    HW2 3328   3.310   5.129   1.691 -1.8751  0.8218 -0.4754
 1029SOL     OW 3329   2.311   2.602   0.690  0.5384  0.2505  0.8931
 1029SOL    HW1 3330   2.373   2.629   0.757  0.1435 -0.6412  1.6560
 1029SOL    HW2 3331   2.362   2.546   0.631  1.2518  2.2290 -0.4507
 1030SOL     OW 3332   2.297   3.408   1.909  0.1612  0.4442 -0.4090
 1030SOL    HW1 3333   2.372   3.348   1.899  0.0423  0.4032 -1.0478
 1030SOL    HW2 3334   2.222   3.357   1.881 -0.3106  0.0666  1.3754
 1031SOL     OW 3335   3.710   1.297   1.139 -0.3271  0.5350 -0.2289
 1031SOL    HW1 3336   3.739   1.214   1.178 -2.0766  0.4770  1.0799
 1031SOL    HW2 3337   3.619   1.281   1.113 -0.8348  2.1382  0.4199
 1032SOL     OW 3338   4.510   4.240   1.787  0.0937 -0.8774 -0.3725
 1032SOL    HW1 3339   4.469   4.162   1.824  1.3195 -1.6738 -0.6392
 1032SOL    HW2 3340   4.502   4.228   1.692 -0.3300 -0.3274 -0.4118
 1033SOL     OW 3341   0.267   4.293   0.300 -0.9616 -0.0559 -1.0583
 1033SOL    HW1 3342   0.269   4.198   0.290 -2.7397 -0.1188 -1.2650
 1033SOL    HW2 3343   0.249   4.307   0.393  0.4356  0.1317 -0.7958
 1034SOL     OW 3344   3.020   2.167   1.248  0.2121 -0.1042  0.3573
 1034SOL    HW1 3345   3.052   2.151   1.159 -0.3415 -0.2317  0.1785
 1034SOL    HW2 3346   3.054   2.094   1.300 -0.1447 -0.4636  0.0831
 1035SOL     OW 3347   3.577   2.316   2.067 -0.1881 -0.5243 -0.0520
 1035SOL    HW1 3348   3.527   2.245   2.108  0.9346 -0.7751  0.9448
 1035SOL    HW2 3349   3.603   2.372   2.140  0.0222  0.2164 -0.6859
 1036SOL     OW 3350   5.168   3.545   0.552 -0.5143 -0.0739 -0.4568
 1036SOL    HW1 3351   5.146   3.582   0.466 -1.9719  0.3863  0.0755
 1036SOL    HW2 3352   5.127   3.458   0.551 -0.6244 -0.0246 -0.1917
 1037SOL     OW 3353   1.033   5.246   0.781 -0.1786 -0.5111 -0.3569
 1037SOL    HW1 3354   0.999   5.285   0.700  0.5634 -0.5795 -0.7133
 1037SOL    HW2 3355   1.125   5.274   0.784 -0.3842  0.0931  0.8465
 1038SOL     OW 3356   3.891   6.182   2.577  0.4199  0.1376 -0.3202
 1038SOL    HW1 3357   3.935   6.178   2.662  1.1409 -2.4166 -0.7315
 1038SOL    HW2 3358   3.881   6.275   2.560 -0.2925  0.7588  2.8135
 1039SOL     OW 3359   6.357   2.469   2.471  0.0758  0.5615  0.4619
 1039SOL    HW1 3360   6.289   2.526   2.434 -1.4170 -0.9202  0.8154
 1039SOL    HW2 3361   6.309   2.402   2.519  1.8096 -0.5264  0.7725
 1040SOL     OW 3362   3.995   3.759   0.314 -0.0174 -0.2990 -0.4415
 1040SOL    HW1 3363   3.972   3.847   0.343 -1.0015 -0.3092 -1.1407
 1040SOL    HW2 3364   4.086   3.766   0.285 -0.8754  1.2150 -3.1312
 1041SOL     OW 3365   3.051   5.030   3.077 -0.2503  0.0806  0.1733
 1041SOL    HW1 3366   3.010   5.040   2.991  1.5902 -1.0565 -0.9061
 1041SOL    HW2 3367   3.059   4.935   3.088  2.8958  0.2305 -0.1370
 1042SOL     OW 3368   4.443   0.959   0.108 -0.9373 -0.6831  0.3471
 1042SOL    HW1 3369   4.375   1.010   0.153 -2.7582 -2.8241  0.1926
 1042SOL    HW2 3370   4.408   0.943   0.021  1.9141  2.1425 -1.5483
 1043SOL     OW 3371   5.925   6.619   2.784 -0.3944 -0.5205 -0.0303
 1043SOL    HW1 3372   5.851   6.564   2.811 -2.3196  1.8600 -0.1758
 1043SOL    HW2 3373   5.899   6.708   2.808  1.7606  0.5920 -1.5141
 1044SOL     OW 3374   3.582   3.785   0.889  0.2418 -0.1597  0.0220
 1044SOL    HW1 3375   3.502   3.823   0.924  0.1007 -1.2647  0.9638
 1044SOL    HW2 3376   3.555   3.701   0.852  1.1178 -1.1037  1.4161
 1045SOL     OW 3377   4.030   2.368   1.878  0.0247  0.1403  0.0103
 1045SOL    HW1 3378   4.104   2.412   1.920  0.3182  0.4279 -0.8041
 1045SOL    HW2 3379   3.993   2.313   1.948  1.1932 -0.2557  0.3446
 1046SOL     OW 3380   5.325   4.975   3.081 -0.0900 -0.2825 -0.0155
 1046SOL    HW1 3381   5.317   4.993   3.175  2.5408 -0.4778  0.3160
 1046SOL    HW2 3382   5.312   4.880   3.074 -0.4024 -0.2523  0.1212
 1047SOL     OW 3383   4.104   5.299   0.814 -0.2527 -0.5744 -0.3053
 1047SOL    HW1 3384   4.030   5.306   0.753  0.0540  4.2149 -0.5272
 1047SOL    HW2 3385   4.156   5.378   0.797  1.8387 -0.8462  3.6933
 1048SOL     OW 3386   5.108   5.076   1.353  0.1478 -0.6962  0.1995
 1048SOL    HW1 3387   5.108   5.098   1.260  0.8685  0.0012  0.3595
 1048SOL    HW2 3388   5.023   5.034   1.367 -0.3427  0.0031 -0.5770
 1049SOL     OW 3389   2.741   1.881   0.978 -0.1421  0.0104  0.3878
 1049SOL    HW1 3390   2.798   1.831   1.036  0.4498  1.7245  1.3285
 1049SOL    HW2 3391   2.652   1.860   1.008 -0.0101 -1.5974 -0.2108
 1050SOL     OW 3392   4.692   3.597   1.765  0.2274  0.4681 -0.1882
 1050SOL    HW1 3393   4.671   3.612   1.673 -0.2221  0.2933 -0.1184
 1050SOL    HW2 3394   4.771   3.649   1.781 -0.0291  0.9710 -0.5220
 1051SOL     OW 3395   5.132   2.885   2.868  0.7971 -0.0070  0.2275
 1051SOL    HW1 3396   5.136   2.837   2.951  2.6563 -0.6765 -0.1961
 1051SOL    HW2 3397   5.199   2.953   2.876 -0.9559  1.8002  0.3248
 1052SOL     OW 3398   3.190   4.627   2.905 -0.0588 -0.0033 -0.1989
 1052SOL    HW1 3399   3.142   4.678   2.970 -0.9475  0.4928 -1.2115
 1052SOL    HW2 3400   3.174   4.535   2.930 -0.8274  0.1726 -0.0335
 1053SOL     OW 3401   2.505   4.040   2.808 -0.2887  0.3910 -0.1240
 1053SOL    HW1 3402   2.476   4.069   2.894 -0.7342 -2.0562  0.6201
 1053SOL    HW2 3403   2.599   4.027   2.817 -0.0903  1.5116 -0.4553
 1054SOL     OW 3404   6.533   6.068   2.828 -0.3184 -0.0952  0.3314
 1054SOL    HW1 3405   6.513   6.149   2.876  1.1994  0.1740  0.5643
 1054SOL    HW2 3406   6.629   6.064   2.827 -0.3108 -0.5333 -1.9821
 1055SOL     OW 3407   6.711   2.878   2.795 -0.2883  0.5745 -0.4194
 1055SOL    HW1 3408   6.620   2.860   2.819 -0.8757  1.3153 -1.9605
 1055SOL    HW2 3409   6.714   2.864   2.700  1.3240  0.1095 -0.3200
 1056SOL     OW 3410   3.929   4.070   2.779 -0.1173 -0.2434  0.2314
 1056SOL    HW1 3411   4.007   4.109   2.741  0.2688 -1.3947 -0.2088
 1056SOL    HW2 3412   3.861   4.080   2.713 -0.3991  0.8518  0.6553
 1057SOL     OW 3413   6.014   2.781   2.185 -0.1280 -0.0295  0.2251
 1057SOL    HW1 3414   6.077   2.760   2.116 -1.1330 -0.2842 -0.6397
 1057SOL    HW2 3415   5.979   2.866   2.161 -1.6182 -0.7969 -0.4734
 1058SOL     OW 3416   6.550   4.950   3.110 -0.7633 -0.2128  0.1419
 1058SOL    HW1 3417   6.468   4.907   3.084 -1.5324  1.8498 -1.2158
 1058SOL    HW2 3418   6.523   5.039   3.134  1.0663  0.4849 -0.2277
 1059SOL     OW 3419   6.300   4.447   3.315 -0.2264  0.0327 -0.4239
 1059SOL    HW1 3420   6.333   4.372   3.365  1.0446  0.6879 -0.2284
 1059SOL    HW2 3421   6.254   4.409   3.241 -0.6748 -0.9437  0.3336
 1060SOL     OW 3422   2.182   4.176   2.759  0.7092 -0.2485  0.4103
 1060SOL    HW1 3423   2.248   4.176   2.689  0.5544 -2.9564  0.1327
 1060SOL    HW2 3424   2.119   4.242   2.733  1.3659 -0.2439 -1.3113
 1061SOL     OW 3425   2.514   6.295   3.079 -0.5154 -0.2107  0.0213
 1061SOL    HW1 3426   2.502   6.370   3.138  0.1583 -0.3052  0.2899
 1061SOL    HW2 3427   2.593   6.251   3.112 -1.0773 -1.2243  0.0621
 1062SOL     OW 3428   3.839   5.056   1.893 -0.1429 -0.2925  0.3495
 1062SOL    HW1 3429   3.826   5.018   1.806  0.0427  0.8991 -0.2137
 1062SOL    HW2 3430   3.888   4.989   1.941  0.8644 -0.4592 -0.8637
 1063SOL     OW 3431   5.855   5.680   2.865  0.1653 -0.6986  0.4407
 1063SOL    HW1 3432   5.840   5.640   2.951 -1.3092 -2.4323 -0.5364
 1063SOL    HW2 3433   5.837   5.773   2.878 -2.2083 -1.2453  1.6012
 1064SOL     OW 3434   4.512   2.226   1.884  0.3567 -0.3129  0.4364
 1064SOL    HW1 3435   4.585   2.194   1.937 -0.3430 -0.7721  1.1481
 1064SOL    HW2 3436   4.434   2.196   1.930 -0.3038  0.8926  0.1466
 1065SOL     OW 3437   3.017   4.748   3.096  0.1473 -0.4025 -0.0676
 1065SOL    HW1 3438   2.948   4.718   3.037 -0.2750  0.8363 -0.2376
 1065SOL    HW2 3439   3.010   4.692   3.173 -0.7814 -0.5569 -0.2568
 1066SOL     OW 3440   4.658   0.583   0.400 -0.3206  0.0754 -0.3207
 1066SOL    HW1 3441   4.620   0.529   0.331 -0.2104  0.8398 -1.0034
 1066SOL    HW2 3442   4.636   0.538   0.481  0.5270 -1.4442 -0.9096
 1067SOL     OW 3443   3.872   6.459   3.112  0.4517 -0.4360 -0.3412
 1067SOL    HW1 3444   3.941   6.394   3.099  0.3062 -1.3098  2.5288
 1067SOL    HW2 3445   3.791   6.410   3.100  0.3457 -0.6845  1.2188
 1068SOL     OW 3446   3.784   0.853   0.308 -0.0098  0.0364 -0.2364
 1068SOL    HW1 3447   3.777   0.869   0.213 -0.2520  2.2267  0.0938
 1068SOL    HW2 3448   3.727   0.778   0.323 -0.8272  0.3138 -1.6910
 1069SOL     OW 3449   5.269   7.062   3.252 -0.3756 -0.3508 -0.2566
 1069SOL    HW1 3450   5.325   7.052   3.329 -0.4210  0.9673 -0.0350
 1069SOL    HW2 3451   5.325   7.105   3.187 -0.6913 -0.3709 -0.5430
 1070SOL     OW 3452   5.093   3.818   2.069  0.0046 -0.2685 -0.8741
 1070SOL    HW1 3453   4.998   3.805   2.063 -0.1747  0.8979 -0.7955
 1070SOL    HW2 3454   5.117   3.854   1.983  0.0597  1.1549 -0.2975
 1071SOL     OW 3455   5.105   3.727   0.768  0.6205 -0.1292  0.2505
 1071SOL    HW1 3456   5.175   3.792   0.766  1.8723 -1.4252  0.2865
 1071SOL    HW2 3457   5.127   3.665   0.699 -1.1005  0.0014 -0.4729
 1072SOL     OW 3458   3.257   3.681   0.889 -0.5598 -0.2560  0.0259
 1072SOL    HW1 3459   3.254   3.771   0.855 -0.2108  0.5199  1.9393
 1072SOL    HW2 3460   3.282   3.628   0.813  1.1212  1.4881 -0.7348
 1073SOL     OW 3461   1.090   3.553   0.651  0.3824 -0.3998  0.5005
 1073SOL    HW1 3462   1.081   3.625   0.588  0.4026 -1.1336 -0.3576
 1073SOL    HW2 3463   1.042   3.480   0.611  0.1032 -0.7820  1.5019
 1074SOL     OW 3464   4.822   5.216   2.092  0.1379  0.5934 -0.1171
 1074SOL    HW1 3465   4.905   5.181   2.126  0.6877  1.4027 -0.6020
 1074SOL    HW2 3466   4.829   5.206   1.997 -0.9416 -0.6576 -0.1067
 1075SOL     OW 3467   1.639   1.286   1.090 -0.3717  0.0514  0.0911
 1075SOL    HW1 3468   1.624   1.194   1.112 -0.6276  0.2432  0.7698
 1075SOL    HW2 3469   1.716   1.311   1.142 -2.2331  1.0862  2.5654
 1076SOL     OW 3470   5.288   5.095   2.344 -0.2714  0.1182 -0.0217
 1076SOL    HW1 3471   5.327   5.026   2.290 -0.4776  1.0683 -1.4362
 1076SOL    HW2 3472   5.291   5.174   2.290 -1.9609  0.7647  0.7294
 1077SOL     OW 3473   2.542   4.038   1.348  0.0874 -0.4419  0.1762
 1077SOL    HW1 3474   2.483   4.112   1.364  1.2141  0.7296 -0.8254
 1077SOL    HW2 3475   2.508   3.997   1.269  1.2951  1.0145 -1.1465
 1078SOL     OW 3476   4.118   4.395   2.728  0.9759 -0.1247  0.2627
 1078SOL    HW1 3477   4.130   4.300   2.725 -2.0804 -0.6480  0.9955
 1078SOL    HW2 3478   4.052   4.413   2.661  0.6949  1.2959  0.8812
 1079SOL     OW 3479   4.979   4.780   2.420  0.1098 -0.3505 -0.0958
 1079SOL    HW1 3480   4.933   4.699   2.442  0.2634 -0.4034  0.0289
 1079SOL    HW2 3481   4.954   4.797   2.329 -1.3069  0.3994  0.4119
 1080SOL     OW 3482   5.491   2.983   1.573  0.3945 -0.3034  0.7882
 1080SOL    HW1 3483   5.566   2.925   1.572  1.5111  1.0404 -1.4191
 1080SOL    HW2 3484   5.439   2.958   1.497  0.9467  1.5377 -0.2693
 1081SOL     OW 3485   4.855   5.565   2.881 -0.6595 -0.7266  0.6710
 1081SOL    HW1 3486   4.913   5.531   2.948 -1.0910 -0.6038  1.1104
 1081SOL    HW2 3487   4.901   5.642   2.847 -0.8116 -0.3083  1.3992
 1082SOL     OW 3488   3.973   0.911   0.477  0.0206  0.2996  0.1411
 1082SOL    HW1 3489   3.909   0.915   0.405  0.7934  0.8980 -0.5354
 1082SOL    HW2 3490   3.930   0.858   0.544 -0.7986 -0.1252 -0.6869
 1083SOL     OW 3491   2.185   3.047   2.293  0.3379 -0.7312 -0.0904
 1083SOL    HW1 3492   2.095   3.015   2.294 -0.0573  0.2322 -1.4841
 1083SOL    HW2 3493   2.182   3.128   2.342  0.8925 -1.6875  1.5888
 1084SOL     OW 3494   2.295   3.207   1.038  0.1515 -0.0473 -0.1196
 1084SOL    HW1 3495   2.245   3.192   0.958 -1.1440  1.6995  0.2940
 1084SOL    HW2 3496   2.263   3.141   1.100  0.8144 -1.0898 -0.8552
 1085SOL     OW 3497   4.435   3.264   1.165  0.1942 -0.4850 -0.2834
 1085SOL    HW1 3498   4.426   3.187   1.110 -2.1335  0.1555 -0.9199
 1085SOL    HW2 3499   4.416   3.338   1.107  0.5532  0.4307  0.7143
 1086SOL     OW 3500   2.644   1.137   1.474 -0.0463  0.4536 -0.5561
 1086SOL    HW1 3501   2.635   1.056   1.524 -0.9142  0.0419 -1.3513
 1086SOL    HW2 3502   2.631   1.207   1.538 -1.0884 -0.0585 -0.1852
 1087SOL     OW 3503   3.597   5.108   1.397  0.0171 -0.1283 -0.0581
 1087SOL    HW1 3504   3.664   5.147   1.453  0.1169  2.4332 -1.7899
 1087SOL    HW2 3505   3.637   5.106   1.310 -1.4769 -0.3595 -0.7725
 1088SOL     OW 3506   5.319   3.841   3.169 -0.3332 -0.0317  0.3959
 1088SOL    HW1 3507   5.308   3.930   3.201  0.1108 -0.1804  0.9830
 1088SOL    HW2 3508   5.231   3.812   3.146 -0.5038  0.4880  0.3867
 1089SOL     OW 3509   3.073   5.109   2.587 -0.4418  0.0938 -1.1460
 1089SOL    HW1 3510   3.065   5.044   2.517  1.7970 -1.9277  0.3184
 1089SOL    HW2 3511   3.154   5.156   2.568 -0.4108  0.3150 -0.5069
 1090SOL     OW 3512   3.247   2.008   2.200  0.1862 -0.1148  0.3427
 1090SOL    HW1 3513   3.326   2.062   2.204  0.1676  0.1945 -2.0140
 1090SOL    HW2 3514   3.272   1.932   2.147 -1.1751  0.2020 -0.8243
 1091SOL     OW 3515   5.150   6.693   3.321 -0.1565 -0.1018 -0.0741
 1091SOL    HW1 3516   5.156   6.762   3.255 -1.3000 -0.6829 -0.8010
 1091SOL    HW2 3517   5.227   6.707   3.376 -0.9599  2.5423  0.5614
 1092SOL     OW 3518   2.515   4.985   1.305  0.2795 -0.4041  0.0801
 1092SOL    HW1 3519   2.523   4.943   1.219 -1.3985 -1.2245  0.2765
 1092SOL    HW2 3520   2.447   5.052   1.292  0.4538 -0.1208  0.6266
 1093SOL     OW 3521   2.945   3.963   2.061 -0.2222 -0.7842 -0.0349
 1093SOL    HW1 3522   2.864   4.013   2.057 -0.3090 -0.9475 -0.3642
 1093SOL    HW2 3523   2.940   3.902   1.987  0.4089 -0.4796 -0.3415
 1094SOL     OW 3524   3.422   4.388   0.274  0.1654  0.6885  0.3955
 1094SOL    HW1 3525   3.395   4.297   0.275  0.4166  0.6090 -0.0293
 1094SOL    HW2 3526   3.516   4.385   0.254 -0.2707  1.1385 -1.9976
 1095SOL     OW 3527   3.499   4.785   1.515  0.1739  0.1010 -0.2907
 1095SOL    HW1 3528   3.420   4.775   1.463 -1.3723  0.7946  1.7576
 1095SOL    HW2 3529   3.571   4.775   1.453 -1.4837 -1.3575 -2.1006
 1096SOL     OW 3530   3.663   6.277   3.090 -0.0159  0.5284 -0.2731
 1096SOL    HW1 3531   3.568   6.278   3.093 -0.2971  4.9034 -2.6466
 1096SOL    HW2 3532   3.685   6.267   2.998  1.8265  0.4033  0.1277
 1097SOL     OW 3533   4.771   5.633   1.497  0.2387 -0.1344  0.2179
 1097SOL    HW1 3534   4.747   5.714   1.542  0.6839  0.1283 -0.0057
 1097SOL    HW2 3535   4.719   5.635   1.416 -0.7716 -0.7445  0.8388
 1098SOL     OW 3536   5.066   5.124   1.019 -0.1097 -0.4657 -0.4245
 1098SOL    HW1 3537   4.984   5.163   0.988 -0.1199 -1.6315 -1.9565
 1098SOL    HW2 3538   5.066   5.035   0.984  0.6781 -1.3368  1.6181
 1099SOL     OW 3539   2.187   4.098   0.944 -0.2547  0.0454 -0.2777
 1099SOL    HW1 3540   2.217   4.184   0.915  0.3174  0.6601  1.9515
 1099SOL    HW2 3541   2.092   4.100   0.933 -0.2839  1.1168  0.0988
 1100SOL     OW 3542   4.276   4.376   0.108  0.3383  0.2196 -0.3378
 1100SOL    HW1 3543   4.357   4.362   0.157 -1.4540 -0.7405  2.6288
 1100SOL    HW2 3544   4.252   4.289   0.077 -0.0604  0.3305 -0.3390
 1101SOL     OW 3545   5.380   2.811   2.131  0.2878  0.0873 -0.1551
 1101SOL    HW1 3546   5.429   2.758   2.068 -0.9641 -3.5354  1.5984
 1101SOL    HW2 3547   5.299   2.761   2.145 -0.9090  2.4039  1.9383
 1102SOL     OW 3548   6.125   4.849   1.885 -0.2096  0.3042 -0.0885
 1102SOL    HW1 3549   6.207   4.839   1.935  0.8397  0.3419 -1.7214
 1102SOL    HW2 3550   6.079   4.921   1.929 -0.1914 -0.8314  1.8844
 1103SOL     OW 3551   4.637   5.222   1.406  0.4752  0.5893  0.4618
 1103SOL    HW1 3552   4.599   5.155   1.463 -0.9962  0.8679 -0.1528
 1103SOL    HW2 3553   4.707   5.176   1.358  1.4387  0.2412  2.1168
 1104SOL     OW 3554   5.381   5.358   2.174  0.4224  0.0365  0.3847
 1104SOL    HW1 3555   5.327   5.428   2.208  1.5712  1.4736 -0.6186
 1104SOL    HW2 3556   5.362   5.357   2.080 -0.0095 -1.4141  0.4577
 1105SOL     OW 3557   1.526   1.009   0.786  0.1391 -0.3742 -0.2700
 1105SOL    HW1 3558   1.548   0.922   0.752 -0.5018 -1.0818  1.0607
 1105SOL    HW2 3559   1.475   1.050   0.717  1.2326 -0.6830 -1.2955
 1106SOL     OW 3560   3.689   4.113   0.089 -0.6012  0.2294  0.6469
 1106SOL    HW1 3561   3.634   4.053   0.139 -0.1497  0.4029  1.3562
 1106SOL    HW2 3562   3.627   4.168   0.041 -1.0402 -1.2603 -0.6120
 1107SOL     OW 3563   4.800   2.491   3.062  0.0104  0.0170 -0.0365
 1107SOL    HW1 3564   4.761   2.478   3.148 -1.6326 -0.2131 -0.7733
 1107SOL    HW2 3565   4.822   2.584   3.060 -0.8532  0.2358  0.2753
 1108SOL     OW 3566   1.737   2.225   0.075 -0.5758  0.2123 -0.1548
 1108SOL    HW1 3567   1.650   2.252   0.047 -0.0105 -0.0975 -2.4866
 1108SOL    HW2 3568   1.795   2.296   0.045  0.1757 -0.5112 -0.4682
 1109SOL     OW 3569   3.339   1.771   2.544 -1.2733 -0.5683 -0.6851
 1109SOL    HW1 3570   3.301   1.859   2.540  1.2116  0.6799  1.0505
 1109SOL    HW2 3571   3.427   1.781   2.507 -0.8347 -2.2602 -0.1786
 1110SOL     OW 3572   3.051   4.955   2.025  0.0142  0.3060  0.0098
 1110SOL    HW1 3573   3.120   4.890   2.038  0.0943  0.0860 -1.3566
 1110SOL    HW2 3574   2.969   4.905   2.033  0.0027  0.4984  1.2649
 1111SOL     OW 3575   1.213   4.386   0.674 -0.2795 -0.0272 -0.2756
 1111SOL    HW1 3576   1.168   4.374   0.591 -1.5408  0.5731  0.2982
 1111SOL    HW2 3577   1.271   4.311   0.681 -2.6104 -1.9265 -0.1364
 1112SOL     OW 3578   2.203   3.447   1.561  0.0167 -0.7873 -0.2159
 1112SOL    HW1 3579   2.199   3.500   1.482 -0.2772  0.0084  0.3152
 1112SOL    HW2 3580   2.116   3.455   1.600  0.4914 -0.2247  0.7752
 1113SOL     OW 3581   3.233   3.473   0.700 -0.4538 -0.1279  0.1110
 1113SOL    HW1 3582   3.151   3.436   0.732  0.6812 -1.7160  1.3775
 1113SOL    HW2 3583   3.242   3.438   0.611 -1.8205  1.2754 -0.6209
 1114SOL     OW 3584   1.822   1.524   1.836 -0.0692  0.4226 -0.2165
 1114SOL    HW1 3585   1.791   1.583   1.767  1.1947  1.0466 -0.2874
 1114SOL    HW2 3586   1.914   1.550   1.850 -0.0379 -0.3001  1.0620
 1115SOL     OW 3587   1.942   2.248   2.066  0.3485 -0.0466 -0.5457
 1115SOL    HW1 3588   1.983   2.162   2.077  0.1853 -0.1765 -0.9495
 1115SOL    HW2 3589   2.007   2.310   2.102  0.1135 -0.3964  0.5129
 1116SOL     OW 3590   4.035   1.589   0.314 -0.2283 -0.0062  0.3714
 1116SOL    HW1 3591   4.006   1.530   0.244 -1.1661  0.6061  0.2299
 1116SOL    HW2 3592   4.130   1.579   0.315 -0.3874 -1.9413  0.7337
 1117SOL     OW 3593   4.831   3.706   0.477  0.0048  0.3110 -0.5671
 1117SOL    HW1 3594   4.904   3.673   0.426 -0.3231  0.0464 -0.8740
 1117SOL    HW2 3595   4.856   3.691   0.568  0.8400  1.3208 -0.6168
 1118SOL     OW 3596   4.147   2.052   0.602  0.5998 -0.9835  0.0790
 1118SOL    HW1 3597   4.101   1.989   0.546 -0.6921  0.3833 -0.4638
 1118SOL    HW2 3598   4.223   2.079   0.550 -0.5747  0.2551 -1.1002
 1119SOL     OW 3599   2.832   2.540   2.924  0.1828 -0.6706 -0.4773
 1119SOL    HW1 3600   2.821   2.623   2.879 -0.0830 -0.4921 -0.0912
 1119SOL    HW2 3601   2.901   2.556   2.989  0.3988 -0.8605 -0.6541
 1120SOL     OW 3602   1.627   4.401   0.166  0.3610 -0.6857 -0.1104
 1120SOL    HW1 3603   1.556   4.464   0.174  2.0974  1.4903 -0.7321
 1120SOL    HW2 3604   1.616   4.363   0.079  0.2463  0.0210 -0.4078
 1121SOL     OW 3605   4.780   3.934   0.302 -0.2840  0.2049 -0.5332
 1121SOL    HW1 3606   4.792   3.844   0.330 -0.8111 -0.0850 -1.2083
 1121SOL    HW2 3607   4.742   3.978   0.378 -0.5170 -0.2697 -0.3725
 1122SOL     OW 3608   6.065   2.683   2.742  0.2146 -0.3216 -0.3955
 1122SOL    HW1 3609   5.983   2.634   2.748 -0.3951  0.7400  0.3225
 1122SOL    HW2 3610   6.085   2.686   2.649 -0.3114 -0.9879 -0.5367
 1123SOL     OW 3611   4.946   3.763   1.682  0.1377 -0.5270  0.0212
 1123SOL    HW1 3612   4.859   3.800   1.669 -0.7471 -2.2132  0.8403
 1123SOL    HW2 3613   4.998   3.836   1.716 -1.2829  0.2184  0.6900
 1124SOL     OW 3614   4.093   3.470   2.003  0.0713 -0.5290 -0.0902
 1124SOL    HW1 3615   4.146   3.480   2.082 -1.0057  0.4407  0.5435
 1124SOL    HW2 3616   4.008   3.439   2.036 -0.7579  0.9795 -0.7169
 1125SOL     OW 3617   2.342   2.343   0.093 -0.3914 -0.0207 -0.0921
 1125SOL    HW1 3618   2.266   2.285   0.088 -0.3940  0.0934 -1.9106
 1125SOL    HW2 3619   2.305   2.431   0.090 -0.2639  0.0769  0.7734
 1126SOL     OW 3620   4.701   2.307   2.881 -0.1963  0.1524  0.0480
 1126SOL    HW1 3621   4.734   2.374   2.941 -1.6096  1.6336 -0.7378
 1126SOL    HW2 3622   4.700   2.350   2.795 -1.3561 -0.7952 -0.4486
 1127SOL     OW 3623   3.811   3.266   1.333  0.0285 -0.2006  0.0356
 1127SOL    HW1 3624   3.902   3.243   1.312  0.1904  0.1924  0.3113
 1127SOL    HW2 3625   3.786   3.329   1.265 -0.2365 -0.7461 -0.3898
 1128SOL     OW 3626   1.182   4.890   1.571 -0.6414  0.5814 -0.2773
 1128SOL    HW1 3627   1.242   4.916   1.501  0.1749 -1.2102 -0.3053
 1128SOL    HW2 3628   1.210   4.943   1.647  0.1906  0.6476 -0.6171
 1129SOL     OW 3629   3.669   1.232   1.659 -0.4343  0.5431 -0.1159
 1129SOL    HW1 3630   3.585   1.190   1.644 -1.0488  1.3823  0.8171
 1129SOL    HW2 3631   3.717   1.172   1.716 -1.3759  1.1647  1.3636
 1130SOL     OW 3632   4.012   2.683   1.570 -0.3242 -0.3959 -0.1176
 1130SOL    HW1 3633   4.063   2.603   1.555  0.6552  0.1481  0.2193
 1130SOL    HW2 3634   3.986   2.677   1.662  2.5125  1.1482  0.9102
 1131SOL     OW 3635   4.824   3.104   0.407  0.1874 -0.3158 -0.6309
 1131SOL    HW1 3636   4.854   3.013   0.411  1.7827  0.1106 -1.8879
 1131SOL    HW2 3637   4.903   3.156   0.415 -0.5797  0.9527 -0.9894
 1132SOL     OW 3638   3.430   4.093   2.287 -0.3594 -0.9195  0.0243
 1132SOL    HW1 3639   3.482   4.082   2.367  0.4399 -0.7161 -0.4580
 1132SOL    HW2 3640   3.396   4.006   2.268  0.0402 -1.1111  0.1852
 1133SOL     OW 3641   4.136   4.570   0.967 -0.0003  0.2568  0.1828
 1133SOL    HW1 3642   4.132   4.477   0.988 -1.2219  0.1411 -0.4621
 1133SOL    HW2 3643   4.193   4.607   1.034 -2.1729 -0.4102  2.5850
 1134SOL     OW 3644   0.492   0.970   0.400  0.1965  0.1858 -0.5526
 1134SOL    HW1 3645   0.448   0.995   0.319  1.5951  1.7343 -0.9045
 1134SOL    HW2 3646   0.455   0.886   0.423 -1.2900  0.3937 -2.0141
 1135SOL     OW 3647   4.889   1.785   2.026 -0.1414 -0.7054  0.5222
 1135SOL    HW1 3648   4.913   1.859   2.081 -1.1757  1.7292 -2.0705
 1135SOL    HW2 3649   4.862   1.717   2.088 -0.0515  1.3810  3.0199
 1136SOL     OW 3650   3.963   6.036   2.356  0.5047  0.9259 -0.2229
 1136SOL    HW1 3651   3.984   5.945   2.377 -0.6733  0.7304  0.1825
 1136SOL    HW2 3652   3.947   6.077   2.441 -1.0608  0.9597 -0.5009
 1137SOL     OW 3653   4.150   3.159   2.380 -0.6545 -0.2495  0.2555
 1137SOL    HW1 3654   4.243   3.134   2.379 -0.6585 -0.2744  0.4095
 1137SOL    HW2 3655   4.105   3.082   2.344 -0.5630  0.0002 -0.3940
 1138SOL     OW 3656   2.499   5.685   3.018  0.0340  0.3597 -0.0075
 1138SOL    HW1 3657   2.573   5.710   2.963 -0.3860  0.5398 -0.4962
 1138SOL    HW2 3658   2.441   5.760   3.016 -0.4743 -0.0276 -0.1699
 1139SOL     OW 3659   2.516   2.735   2.761 -0.4051 -0.5927  0.4050
 1139SOL    HW1 3660   2.492   2.652   2.803 -1.7163 -0.8403 -0.7857
 1139SOL    HW2 3661   2.434   2.783   2.752  0.2426  0.5790  0.4742
 1140SOL     OW 3662   2.789   1.055   1.252  0.1443  0.5581 -0.3096
 1140SOL    HW1 3663   2.737   1.067   1.173  1.3710  0.6937 -1.1214
 1140SOL    HW2 3664   2.730   1.076   1.324 -0.8825  0.7803 -1.2064
 1141SOL     OW 3665   3.322   3.430   2.232  0.1211  0.3668 -0.1335
 1141SOL    HW1 3666   3.366   3.470   2.157 -1.2774  0.2934 -1.0247
 1141SOL    HW2 3667   3.245   3.388   2.195  1.1788 -2.7203  0.8116
 1142SOL     OW 3668   0.465   4.849   0.399 -0.6038 -0.2359  0.2284
 1142SOL    HW1 3669   0.443   4.905   0.473 -0.6292 -0.8090  0.6573
 1142SOL    HW2 3670   0.408   4.773   0.409 -0.0665 -0.6663  0.0413
 1143SOL     OW 3671   4.303   1.678   1.132 -0.5814  0.4826  0.4645
 1143SOL    HW1 3672   4.323   1.667   1.039  0.7086  0.1518  0.7539
 1143SOL    HW2 3673   4.213   1.647   1.141 -0.6994  0.4404 -0.6519
 1144SOL     OW 3674   1.159   1.052   0.900 -0.0437  0.1143 -0.7821
 1144SOL    HW1 3675   1.068   1.027   0.881 -0.3557 -0.4559  1.2066
 1144SOL    HW2 3676   1.187   0.990   0.968  0.6527  2.4262  1.1680
 1145SOL     OW 3677   5.358   2.973   1.101  0.5790  0.0304  0.4423
 1145SOL    HW1 3678   5.303   2.942   1.029  1.7305 -1.7723  0.2743
 1145SOL    HW2 3679   5.447   2.946   1.077  1.0599 -0.2276  2.3389
 1146SOL     OW 3680   5.427   3.647   2.728  0.5356 -0.4857 -0.1065
 1146SOL    HW1 3681   5.416   3.740   2.710  0.6627  0.0807  2.3917
 1146SOL    HW2 3682   5.347   3.621   2.774  1.1887 -1.1604  0.7098
 1147SOL     OW 3683   1.986   6.146   2.461 -0.4061 -0.1649 -0.2898
 1147SOL    HW1 3684   2.034   6.228   2.454  1.5736 -1.2337  0.1978
 1147SOL    HW2 3685   2.036   6.084   2.409  0.0563 -1.8493  2.0218
 1148SOL     OW 3686   5.522   3.796   2.328  0.2520 -0.0302 -0.1484
 1148SOL    HW1 3687   5.570   3.870   2.365  0.6960 -1.1164  1.5661
 1148SOL    HW2 3688   5.434   3.830   2.311  0.4851  0.9179  0.4802
 1149SOL     OW 3689   2.267   3.508   2.731  0.0693 -0.3017  0.4503
 1149SOL    HW1 3690   2.362   3.514   2.736  0.0733 -1.1476  3.0322
 1149SOL    HW2 3691   2.250   3.417   2.706 -0.0126 -0.8850  2.4774
 1150SOL     OW 3692   3.672   2.470   0.289 -0.2039  0.6203 -0.0512
 1150SOL    HW1 3693   3.734   2.504   0.224  1.4081 -0.8039  0.6562
 1150SOL    HW2 3694   3.716   2.393   0.325 -3.4372 -2.1195 -1.3829
 1151SOL     OW 3695   3.427   4.592   0.801 -0.3667 -0.6946  0.2364
 1151SOL    HW1 3696   3.518   4.570   0.780 -0.1154 -1.3897  1.8813
 1151SOL    HW2 3697   3.390   4.620   0.718  0.7595 -2.4936 -0.9631
 1152SOL     OW 3698   3.970   5.744   2.036  0.0430  0.1180  0.0050
 1152SOL    HW1 3699   3.892   5.784   1.996  0.1950 -1.7358 -2.3215
 1152SOL    HW2 3700   4.043   5.798   2.006 -0.0232 -0.2065 -0.7546
 1153SOL     OW 3701   4.898   2.134   1.778  0.4607  0.0201  0.6650
 1153SOL    HW1 3702   4.908   2.057   1.723 -2.5217 -1.0510  1.4141
 1153SOL    HW2 3703   4.863   2.100   1.861 -0.3731  2.0989  1.2366
 1154SOL     OW 3704   2.338   5.695   2.406  0.0763 -0.3559  0.2226
 1154SOL    HW1 3705   2.394   5.672   2.480  0.5991 -2.6019 -0.8014
 1154SOL    HW2 3706   2.373   5.645   2.333 -2.4575 -0.7877 -0.7881
 1155SOL     OW 3707   0.872   1.619   0.567  0.0145  0.0436 -0.5714
 1155SOL    HW1 3708   0.859   1.533   0.527  0.3753  0.2600 -1.1741
 1155SOL    HW2 3709   0.855   1.681   0.497 -1.0292  0.5060  0.0704
 1156SOL     OW 3710   5.887   5.999   2.163  0.5202 -0.2348  0.1261
 1156SOL    HW1 3711   5.843   6.052   2.096  0.0492  0.9208  1.3118
 1156SOL    HW2 3712   5.838   5.917   2.164  1.2280 -0.7210 -1.7033
 1157SOL     OW 3713   4.532   4.759   0.875  0.0980  0.1470  0.0896
 1157SOL    HW1 3714   4.548   4.853   0.872  1.0224  0.0193  0.5660
 1157SOL    HW2 3715   4.584   4.728   0.950  1.0336 -0.9526 -0.9724
 1158SOL     OW 3716   4.717   4.208   0.364  0.3018 -0.2263  0.5150
 1158SOL    HW1 3717   4.719   4.142   0.433  3.2627  0.1802  0.9422
 1158SOL    HW2 3718   4.755   4.286   0.404 -1.2931  1.1767 -0.5552
 1159SOL     OW 3719   3.868   5.032   2.901 -1.1624  0.4630 -0.1296
 1159SOL    HW1 3720   3.930   5.060   2.969 -1.9434 -0.3629  0.9611
 1159SOL    HW2 3721   3.879   5.097   2.831  2.2915 -0.7083 -0.8608
 1160SOL     OW 3722   2.643   3.835   2.601 -0.3938  0.4017  0.9209
 1160SOL    HW1 3723   2.589   3.912   2.615 -1.4198 -0.0235 -0.5333
 1160SOL    HW2 3724   2.607   3.769   2.660 -1.3561  0.1948  0.1362
 1161SOL     OW 3725   2.048   5.727   2.501  0.3871  0.0120  0.3457
 1161SOL    HW1 3726   2.008   5.641   2.515  1.4479 -0.2128  2.3653
 1161SOL    HW2 3727   2.122   5.710   2.442 -1.3124  0.1489 -1.9716
 1162SOL     OW 3728   1.832   5.745   1.919 -0.3881  0.3647 -0.2189
 1162SOL    HW1 3729   1.895   5.815   1.935  1.2300 -1.2669  0.9842
 1162SOL    HW2 3730   1.874   5.666   1.953 -3.0719 -0.8427  0.6347
 1163SOL     OW 3731   5.073   0.580   0.496  0.3831  0.0921  0.2628
 1163SOL    HW1 3732   5.166   0.594   0.511  0.4297  0.7267 -0.5558
 1163SOL    HW2 3733   5.032   0.664   0.515  0.3174  0.6206 -1.9033
 1164SOL     OW 3734   1.030   5.365   1.413  0.1382 -0.1875  0.1728
 1164SOL    HW1 3735   0.975   5.443   1.407  1.2250  0.5625 -0.4938
 1164SOL    HW2 3736   0.976   5.294   1.378 -0.4779  0.4902 -0.2765
 1165SOL     OW 3737   2.834   4.674   2.625 -0.0643 -0.3050 -0.1473
 1165SOL    HW1 3738   2.917   4.709   2.594 -1.0105  1.8436 -0.5036
 1165SOL    HW2 3739   2.843   4.669   2.720  0.4069  0.1236 -0.1677
 1166SOL     OW 3740   3.486   3.635   1.794  0.0123  0.1855 -0.4548
 1166SOL    HW1 3741   3.493   3.609   1.885  0.2805  0.3267 -0.4340
 1166SOL    HW2 3742   3.394   3.618   1.771  0.1124 -0.4809 -0.3553
 1167SOL     OW 3743   4.271   4.152   0.623 -0.1423 -0.3811 -0.1471
 1167SOL    HW1 3744   4.322   4.109   0.555 -0.1657 -1.2359  0.3583
 1167SOL    HW2 3745   4.184   4.163   0.585 -0.0632 -0.5469 -0.3772
 1168SOL     OW 3746   3.329   1.407   1.269 -0.1550 -0.1465  0.6316
 1168SOL    HW1 3747   3.424   1.415   1.279  0.1921  0.3942 -2.1601
 1168SOL    HW2 3748   3.311   1.315   1.289  1.2793 -0.7301 -0.5001
 1169SOL     OW 3749   3.001   5.875   1.713  0.0644  0.0219  0.2362
 1169SOL    HW1 3750   2.998   5.880   1.618  1.5998 -0.9128  0.1041
 1169SOL    HW2 3751   3.034   5.960   1.741 -1.4880  0.7153  0.0378
 1170SOL     OW 3752   3.580   1.433   1.841 -0.1899  0.1397 -0.3529
 1170SOL    HW1 3753   3.627   1.383   1.774  1.3483  1.8475 -0.6231
 1170SOL    HW2 3754   3.625   1.410   1.923 -1.8997 -1.7439  0.1390
 1171SOL     OW 3755   1.675   2.626   0.157  0.4093 -0.0981  0.5159
 1171SOL    HW1 3756   1.734   2.694   0.127  0.0643  0.2676  0.6590
 1171SOL    HW2 3757   1.608   2.672   0.207 -0.4807 -0.3944 -0.3638
 1172SOL     OW 3758   1.547   2.104   1.837  0.4403 -0.2360  0.2864
 1172SOL    HW1 3759   1.596   2.115   1.918  0.0338  1.1183  0.3779
 1172SOL    HW2 3760   1.563   2.013   1.811 -0.1569 -0.9978  2.3572
 1173SOL     OW 3761   3.264   6.111   3.252  0.0324  0.4104  0.5882
 1173SOL    HW1 3762   3.215   6.029   3.263  1.3969 -1.2384 -3.6940
 1173SOL    HW2 3763   3.205   6.167   3.201  0.1080  1.1104  1.2543
 1174SOL     OW 3764   1.774   1.586   0.728 -0.0583  0.1765 -0.2382
 1174SOL    HW1 3765   1.715   1.578   0.803 -0.6461  1.5726 -0.5113
 1174SOL    HW2 3766   1.736   1.528   0.662  0.4094 -0.9873  0.4809
 1175SOL     OW 3767   1.759   5.407   1.022  0.4978  0.6538  0.4336
 1175SOL    HW1 3768   1.685   5.346   1.021  0.0614  1.1068  2.1155
 1175SOL    HW2 3769   1.719   5.492   1.037  1.2863  1.0278  0.4463
 1176SOL     OW 3770   5.480   2.336   1.275 -0.7963  0.2540 -0.0736
 1176SOL    HW1 3771   5.552   2.393   1.247 -0.2833 -1.1285 -1.7777
 1176SOL    HW2 3772   5.467   2.357   1.367 -0.8468  3.3052 -0.6671
 1177SOL     OW 3773   1.327   5.322   1.718 -0.2125 -0.8707 -0.6810
 1177SOL    HW1 3774   1.323   5.329   1.623 -3.0180 -0.8983 -0.6649
 1177SOL    HW2 3775   1.354   5.408   1.748 -1.7012 -0.0802 -1.4795
 1178SOL     OW 3776   4.246   1.973   1.579 -0.0914 -0.1927  0.4997
 1178SOL    HW1 3777   4.276   2.030   1.508  2.2791 -2.0903 -0.1381
 1178SOL    HW2 3778   4.244   1.886   1.540 -0.0269 -1.0979  2.4280
 1179SOL     OW 3779   2.119   2.702   2.946 -0.1810 -0.1920 -0.0757
 1179SOL    HW1 3780   2.033   2.666   2.923 -0.7319 -0.0287  1.5929
 1179SOL    HW2 3781   2.167   2.628   2.984 -0.2602  0.1358  0.6773
 1180SOL     OW 3782   2.106   1.293   0.181 -0.3480  0.2763  0.1364
 1180SOL    HW1 3783   2.133   1.369   0.129 -1.4515  0.7323  0.1882
 1180SOL    HW2 3784   2.184   1.238   0.186  0.2599  1.0445 -0.5471
 1181SOL     OW 3785   4.031   2.992   3.012  0.1666  0.5782 -0.5026
 1181SOL    HW1 3786   3.936   2.998   3.005  0.2116  2.6352 -0.0350
 1181SOL    HW2 3787   4.046   2.933   3.086 -0.6578 -1.3934 -1.8296
 1182SOL     OW 3788   5.341   6.361   2.635  0.4914 -0.1707 -0.0650
 1182SOL    HW1 3789   5.434   6.337   2.630  0.9612  1.4705 -0.0588
 1182SOL    HW2 3790   5.338   6.449   2.596 -1.2122 -0.5538 -0.8444
 1183SOL     OW 3791   5.635   5.152   1.374  0.2683  0.0025  0.7140
 1183SOL    HW1 3792   5.621   5.122   1.284 -0.7121 -0.5866  1.0506
 1183SOL    HW2 3793   5.549   5.178   1.405  0.9044  2.2504  0.8102
 1184SOL     OW 3794   2.147   5.332   1.860 -0.4057  0.2304  0.4626
 1184SOL    HW1 3795   2.113   5.242   1.855  0.8815 -0.2875  0.4959
 1184SOL    HW2 3796   2.218   5.333   1.795  1.5364  0.3130  2.4705
 1185SOL     OW 3797   4.391   4.217   0.845  0.5057 -0.0381 -0.4923
 1185SOL    HW1 3798   4.326   4.255   0.904 -0.5525 -1.2526 -0.8393
 1185SOL    HW2 3799   4.344   4.200   0.764  0.7404 -2.4784 -0.2170
 1186SOL     OW 3800   2.044   2.934   1.810  0.0123  0.4977 -0.3633
 1186SOL    HW1 3801   2.022   2.841   1.810  2.4891 -0.1390 -0.3747
 1186SOL    HW2 3802   2.085   2.949   1.895  2.0034  0.9252 -1.3355
 1187SOL     OW 3803   6.474   2.239   2.843  0.3460 -0.2979  0.1015
 1187SOL    HW1 3804   6.439   2.173   2.903  0.7417 -2.0178 -1.4399
 1187SOL    HW2 3805   6.566   2.213   2.830  0.6225  0.8032 -0.2506
 1188SOL     OW 3806   2.346   4.579   3.245  0.1199  0.1727 -0.4861
 1188SOL    HW1 3807   2.256   4.555   3.224 -0.0226  0.6037 -0.3692
 1188SOL    HW2 3808   2.389   4.495   3.263 -0.5977  0.0654  0.7989
 1189SOL     OW 3809   5.480   3.354   3.211 -0.8929 -0.0860 -0.6816
 1189SOL    HW1 3810   5.402   3.406   3.228 -0.2341  0.3364  1.3075
 1189SOL    HW2 3811   5.552   3.417   3.208 -0.3960 -0.6348 -0.6721
 1190SOL     OW 3812   5.265   1.701   1.285 -0.6632  0.4232 -0.0296
 1190SOL    HW1 3813   5.296   1.786   1.318  1.0660 -0.7142  1.5403
 1190SOL    HW2 3814   5.200   1.673   1.349 -1.1110  0.4629 -0.4585
 1191SOL     OW 3815   2.902   3.782   0.798  0.0528 -0.1979 -0.3401
 1191SOL    HW1 3816   2.996   3.773   0.780  0.2087 -0.8321  0.6927
 1191SOL    HW2 3817   2.885   3.876   0.788  1.1599  0.1907  1.0074
 1192SOL     OW 3818   3.855   4.259   2.288 -0.3391 -0.3145 -0.0357
 1192SOL    HW1 3819   3.947   4.276   2.269  0.0891  1.1289  2.7451
 1192SOL    HW2 3820   3.807   4.324   2.237  0.3142  0.0568 -0.1845
 1193SOL     OW 3821   6.206   5.251   2.918 -0.0592  0.1780 -0.4360
 1193SOL    HW1 3822   6.215   5.283   3.008  1.7759 -0.1974 -0.4529
 1193SOL    HW2 3823   6.158   5.321   2.873 -1.6232  0.0619  0.9694
 1194SOL     OW 3824   4.410   2.196   0.961  0.3215  0.4845  0.0092
 1194SOL    HW1 3825   4.381   2.265   1.021  0.9443  1.0682 -0.3327
 1194SOL    HW2 3826   4.331   2.148   0.939 -0.1200  1.0638  0.3011
 1195SOL     OW 3827   2.927   2.062   1.807  0.3221 -0.2630  0.5667
 1195SOL    HW1 3828   3.018   2.042   1.782 -0.1801 -0.1120 -1.5895
 1195SOL    HW2 3829   2.874   2.008   1.749 -0.9877  1.2497  0.2918
 1196SOL     OW 3830   1.704   2.400   1.057  0.0359 -0.2791  0.0876
 1196SOL    HW1 3831   1.776   2.339   1.070  0.4934  0.3890  0.7665
 1196SOL    HW2 3832   1.625   2.349   1.075  0.3701 -0.8535 -0.0632
 1197SOL     OW 3833   2.500   1.911   1.449 -0.1941  0.0295 -0.5889
 1197SOL    HW1 3834   2.570   1.867   1.401  1.5961  1.9577  0.1231
 1197SOL    HW2 3835   2.511   1.884   1.540 -1.4108 -0.8913 -0.6858
 1198SOL     OW 3836   5.606   4.385   2.437 -0.4207 -0.3558 -0.0437
 1198SOL    HW1 3837   5.584   4.451   2.371  0.4712 -0.0278 -0.0235
 1198SOL    HW2 3838   5.652   4.317   2.388  2.1880  0.8839  0.5315
 1199SOL     OW 3839   3.090   0.749   0.475 -0.0176 -0.1424 -0.1126
 1199SOL    HW1 3840   3.155   0.684   0.503  0.6404  0.0299 -1.1696
 1199SOL    HW2 3841   3.141   0.818   0.432 -0.8521  0.2193 -0.5592
 1200SOL     OW 3842   2.091   1.657   2.180 -0.2573  0.4324 -0.7006
 1200SOL    HW1 3843   2.064   1.567   2.164 -0.8324  0.5233 -0.3054
 1200SOL    HW2 3844   2.182   1.661   2.152 -0.5353  0.0043 -1.7103
 1201SOL     OW 3845   2.240   1.671   1.128 -0.6884 -0.4739  0.0087
 1201SOL    HW1 3846   2.211   1.719   1.050 -0.2799  0.1434  0.2307
 1201SOL    HW2 3847   2.189   1.590   1.126 -0.0314 -0.8788 -1.4013
 1202SOL     OW 3848   4.916   1.866   0.624  0.3098 -0.4595 -0.3666
 1202SOL    HW1 3849   5.000   1.895   0.590 -0.4309  1.5356 -0.6326
 1202SOL    HW2 3850   4.856   1.871   0.549  0.1113 -2.9319 -0.4818
 1203SOL     OW 3851   0.896   1.805   0.753  0.2296  0.0157  0.0542
 1203SOL    HW1 3852   0.872   1.726   0.704 -0.3669 -0.6877  1.4199
 1203SOL    HW2 3853   0.962   1.776   0.815 -0.1798  0.5194  0.7459
 1204SOL     OW 3854   1.199   2.301   0.659  0.1141  0.7711  0.2168
 1204SOL    HW1 3855   1.199   2.310   0.754  3.0040  2.4537  0.1815
 1204SOL    HW2 3856   1.280   2.253   0.640 -0.8305 -0.2739 -1.3728
 1205SOL     OW 3857   5.762   4.595   2.255 -0.5412  0.1806 -0.0406
 1205SOL    HW1 3858   5.770   4.688   2.232  2.0277 -0.1957 -1.0066
 1205SOL    HW2 3859   5.672   4.572   2.230 -0.9622  2.1825 -0.5838
 1206SOL     OW 3860   4.363   3.537   0.400  0.2565  0.4054  0.0444
 1206SOL    HW1 3861   4.368   3.445   0.427 -0.1002  0.5492  0.6173
 1206SOL    HW2 3862   4.436   3.580   0.444 -0.0918  0.5622  0.4794
 1207SOL     OW 3863   2.634   2.515   0.335  0.2184  0.2420 -0.1711
 1207SOL    HW1 3864   2.622   2.433   0.287  2.4358  0.2990 -0.9533
 1207SOL    HW2 3865   2.682   2.490   0.414  1.0265  0.7750 -0.4815
 1208SOL     OW 3866   2.250   4.757   1.089 -0.0625  0.0182  0.1578
 1208SOL    HW1 3867   2.340   4.787   1.076  0.1383 -0.6400 -0.0229
 1208SOL    HW2 3868   2.235   4.765   1.183  0.3798 -0.3739  0.2695
 1209SOL     OW 3869   2.143   2.407   2.162  0.3756  0.5895  0.6872
 1209SOL    HW1 3870   2.099   2.487   2.134 -0.1884  0.3916  1.0090
 1209SOL    HW2 3871   2.118   2.396   2.254  0.1528 -0.1558  0.5419
 1210SOL     OW 3872   2.680   5.280   2.361 -0.1292 -0.7083 -0.0139
 1210SOL    HW1 3873   2.761   5.326   2.384  0.2749 -1.9323  1.1579
 1210SOL    HW2 3874   2.616   5.349   2.349  0.8731  0.2418 -0.0612
 1211SOL     OW 3875   3.046   0.223   0.162 -0.0453  0.3953 -0.2040
 1211SOL    HW1 3876   2.960   0.218   0.206 -0.0284  0.5060 -0.1585
 1211SOL    HW2 3877   3.026   0.257   0.075 -0.2200 -0.8428 -0.6741
 1212SOL     OW 3878   3.797   2.277   0.012  0.0989 -0.5653 -0.2151
 1212SOL    HW1 3879   3.722   2.235   0.054  0.1560 -1.1224 -0.6534
 1212SOL    HW2 3880   3.848   2.205  -0.024 -0.2729 -0.0927 -1.7859
 1213SOL     OW 3881   4.057   6.098   3.362  0.6054 -0.2276  0.8357
 1213SOL    HW1 3882   4.096   6.183   3.345 -0.0049  0.1882  1.4868
 1213SOL    HW2 3883   4.122   6.052   3.415 -0.1489  0.8209  2.7543
 1214SOL     OW 3884   3.132   3.105   0.071  0.6291  0.1771  0.6643
 1214SOL    HW1 3885   3.109   3.139   0.158 -1.5119 -2.0506  1.0661
 1214SOL    HW2 3886   3.163   3.182   0.023 -0.3072  1.9145  2.6772
 1215SOL     OW 3887   5.695   4.228   2.231 -0.0932 -0.2857 -0.0890
 1215SOL    HW1 3888   5.775   4.274   2.206 -0.4841  1.1737  1.1864
 1215SOL    HW2 3889   5.642   4.226   2.152  0.3695  0.5410 -0.4294
 1216SOL     OW 3890   5.570   3.567   2.185 -0.2110  0.8469 -0.3042
 1216SOL    HW1 3891   5.557   3.479   2.221 -0.4648 -0.0233 -2.3911
 1216SOL    HW2 3892   5.534   3.626   2.252  1.2750 -0.4860  1.7987
 1217SOL     OW 3893   6.658   6.148   3.273 -0.2715  0.1987  0.7156
 1217SOL    HW1 3894   6.737   6.098   3.253  1.3397  1.8176  2.5338
 1217SOL    HW2 3895   6.607   6.090   3.329  0.4711 -0.2793  0.9162
 1218SOL     OW 3896   1.497   3.193   1.464 -0.6280  0.3583  0.4701
 1218SOL    HW1 3897   1.498   3.184   1.559 -1.8013  1.3854  0.6207
 1218SOL    HW2 3898   1.411   3.160   1.438 -0.0031 -0.6797 -0.3425
 1219SOL     OW 3899   1.987   2.615   0.103  0.1428 -0.8505  0.1631
 1219SOL    HW1 3900   2.021   2.562   0.175  1.9679  0.4681  0.3562
 1219SOL    HW2 3901   1.939   2.686   0.146  0.3007 -0.6669  0.0377
 1220SOL     OW 3902   4.998   2.781   0.724 -0.5104 -0.0028  0.3213
 1220SOL    HW1 3903   4.942   2.858   0.737 -0.6859 -0.1587  0.4788
 1220SOL    HW2 3904   5.023   2.786   0.631  1.2212  1.4257  0.8084
 1221SOL     OW 3905   3.148   1.306   0.927 -0.2309 -0.0141  0.7601
 1221SOL    HW1 3906   3.206   1.246   0.879 -1.3257  0.1303 -0.8333
 1221SOL    HW2 3907   3.135   1.380   0.867  0.9026  1.7617  2.5978
 1222SOL     OW 3908   5.051   2.276   2.301  0.1347 -0.6344  0.0901
 1222SOL    HW1 3909   4.970   2.314   2.264  1.0114  0.0805 -1.1942
 1222SOL    HW2 3910   5.121   2.324   2.257  1.2879 -0.0260  2.4596
 1223SOL     OW 3911   4.477   1.914   1.147  0.4936  0.0800  0.4305
 1223SOL    HW1 3912   4.544   1.910   1.078 -0.1455 -1.0283 -0.1511
 1223SOL    HW2 3913   4.428   1.833   1.138  0.8089 -0.4237  2.6583
 1224SOL     OW 3914   2.215   1.973   0.971  0.5318 -0.4022  0.4202
 1224SOL    HW1 3915   2.243   2.051   1.018  1.2324 -0.0902 -0.4912
 1224SOL    HW2 3916   2.125   1.992   0.944  0.4403 -0.2252  0.8430
 1225SOL     OW 3917   3.726   2.568   0.685 -0.1182 -0.3272 -0.5115
 1225SOL    HW1 3918   3.767   2.503   0.628  0.6057  0.0026 -0.3729
 1225SOL    HW2 3919   3.706   2.520   0.765 -2.6179 -1.2168 -1.5786
 1226SOL     OW 3920   5.801   2.683   3.179  0.2303 -0.0827 -0.2162
 1226SOL    HW1 3921   5.814   2.753   3.114 -0.7291  0.4367  0.1328
 1226SOL    HW2 3922   5.875   2.692   3.238  1.7389 -1.2673 -1.8323
 1227SOL     OW 3923   3.165   2.399   2.221  0.8264 -0.1533  0.5104
 1227SOL    HW1 3924   3.180   2.442   2.305  0.2452 -0.7160  0.9064
 1227SOL    HW2 3925   3.225   2.324   2.222  1.0624  0.0291  0.2741
 1228SOL     OW 3926   5.265   5.738   2.893 -0.1327 -0.1426 -0.3303
 1228SOL    HW1 3927   5.305   5.817   2.857  0.0225  0.6558  1.4617
 1228SOL    HW2 3928   5.171   5.755   2.889 -0.1044  0.0895 -0.0982
 1229SOL     OW 3929   4.867   6.644   2.895  0.7090  0.0427 -0.3886
 1229SOL    HW1 3930   4.962   6.643   2.906  0.5405  0.7265  1.5368
 1229SOL    HW2 3931   4.853   6.685   2.810  2.1401 -0.7035 -1.0070
 1230SOL     OW 3932   6.994   5.619   3.224  0.1683 -0.0023  0.0462
 1230SOL    HW1 3933   6.957   5.532   3.239  1.4545 -0.5515  0.1445
 1230SOL    HW2 3934   7.084   5.603   3.194  0.9903  1.2903  1.6389
 1231SOL     OW 3935   2.597   0.529   0.378  0.3821 -0.6369  0.1709
 1231SOL    HW1 3936   2.609   0.440   0.409  1.0970 -1.0208 -1.1578
 1231SOL    HW2 3937   2.559   0.519   0.291  0.1097  0.3683  0.1611
 1232SOL     OW 3938   0.929   4.549   0.717 -0.0569  0.7663 -0.1994
 1232SOL    HW1 3939   1.023   4.535   0.723  0.0758  1.6516 -0.1410
 1232SOL    HW2 3940   0.910   4.549   0.624 -0.0362  0.4073 -0.2072
 1233SOL     OW 3941   4.192   2.282   1.291  0.1567  0.2453 -0.1264
 1233SOL    HW1 3942   4.234   2.196   1.297 -1.2252 -0.3595  3.3002
 1233SOL    HW2 3943   4.109   2.266   1.246  0.5240  0.0842 -0.7529
 1234SOL     OW 3944   3.249   4.852   3.310  0.1984 -0.2246 -0.1642
 1234SOL    HW1 3945   3.251   4.947   3.314 -0.2409 -0.2427  1.9151
 1234SOL    HW2 3946   3.321   4.828   3.252 -0.4027  1.3849 -1.6291
 1235SOL     OW 3947   4.404   4.835   0.175 -0.3461 -0.1683  0.3664
 1235SOL    HW1 3948   4.453   4.894   0.118  1.4554  0.6080  2.5688
 1235SOL    HW2 3949   4.458   4.757   0.182 -2.1482 -1.7049 -1.5617
 1236SOL     OW 3950   4.599   1.953   1.391  0.5508 -0.2702  0.2705
 1236SOL    HW1 3951   4.542   1.996   1.454 -0.4294 -2.1236  0.7049
 1236SOL    HW2 3952   4.552   1.962   1.307  1.5773  1.6817 -0.1505
 1237SOL     OW 3953   2.267   0.967   1.311  0.4965  0.4466 -0.2135
 1237SOL    HW1 3954   2.356   0.972   1.275  1.2811  0.8868  1.6467
 1237SOL    HW2 3955   2.261   0.878   1.346  1.1286  1.0947  1.7216
 1238SOL     OW 3956   5.617   3.318   2.813  0.7274 -0.5239  0.1182
 1238SOL    HW1 3957   5.615   3.400   2.862 -0.7407 -0.2586 -0.3358
 1238SOL    HW2 3958   5.528   3.309   2.778  1.6983 -0.6962 -2.4802
 1239SOL     OW 3959   6.505   5.229   3.080  0.0471  0.4429  0.1601
 1239SOL    HW1 3960   6.538   5.208   2.994  0.2299 -1.3755  0.6398
 1239SOL    HW2 3961   6.423   5.277   3.063  0.0441  0.0533 -1.0156
 1240SOL     OW 3962   1.741   1.154   1.552  0.1599  0.2604  0.0057
 1240SOL    HW1 3963   1.674   1.204   1.506 -0.8463 -0.2433  0.8804
 1240SOL    HW2 3964   1.714   1.157   1.644  1.9550  0.9885  0.5395
 1241SOL     OW 3965   4.703   3.899   1.714  0.3160 -0.3597 -0.3562
 1241SOL    HW1 3966   4.622   3.893   1.663  0.1335  2.0536 -0.4601
 1241SOL    HW2 3967   4.679   3.952   1.790  1.7093  0.0786 -0.2027
 1242SOL     OW 3968   4.260   4.850   1.257  0.8182 -0.2877 -0.3374
 1242SOL    HW1 3969   4.228   4.854   1.167 -0.2688 -0.6126  0.0283
 1242SOL    HW2 3970   4.344   4.804   1.250  0.9728  0.0968 -1.2321
 1243SOL     OW 3971   5.476   1.824   1.993  0.4543 -0.3168  0.5229
 1243SOL    HW1 3972   5.543   1.870   2.044  1.0584 -1.2340  0.5957
 1243SOL    HW2 3973   5.486   1.732   2.020 -0.4982 -0.5380  0.1500
 1244SOL     OW 3974   1.751   5.665   2.202 -0.6555 -0.0552  0.5606
 1244SOL    HW1 3975   1.786   5.707   2.281 -0.4871  0.2942  0.3049
 1244SOL    HW2 3976   1.740   5.737   2.139 -0.4149 -0.3842  0.1333
 1245SOL     OW 3977   5.879   3.023   2.139 -0.2441  0.3451  0.0020
 1245SOL    HW1 3978   5.818   3.002   2.068  1.0541 -1.3209 -0.6705
 1245SOL    HW2 3979   5.822   3.034   2.216 -1.4857 -0.0371 -0.8278
 1246SOL     OW 3980   2.426   6.606   3.152  0.3167 -0.2050 -0.3227
 1246SOL    HW1 3981   2.477   6.608   3.233 -1.0769  0.9740  0.5788
 1246SOL    HW2 3982   2.353   6.547   3.170 -0.9882  1.4266 -0.0443
 1247SOL     OW 3983   5.241   4.787   1.388 -0.1288 -0.2330  0.9166
 1247SOL    HW1 3984   5.252   4.851   1.317  0.8683 -1.2955  0.0634
 1247SOL    HW2 3985   5.304   4.813   1.454  1.2548 -1.0653 -0.0198
 1248SOL     OW 3986   2.862   3.705   2.820  0.1470 -0.2289  0.4270
 1248SOL    HW1 3987   2.876   3.631   2.760 -0.1819  0.4562 -0.5154
 1248SOL    HW2 3988   2.811   3.668   2.892 -0.6117 -0.7797 -0.3693
 1249SOL     OW 3989   3.543   3.243   2.347  0.4833  0.1376  0.2512
 1249SOL    HW1 3990   3.467   3.299   2.328  0.0225  0.0072  1.5929
 1249SOL    HW2 3991   3.610   3.303   2.378  0.3499  0.0771  0.6675
 1250SOL     OW 3992   2.813   3.100   2.061  0.1003  0.1591 -0.2507
 1250SOL    HW1 3993   2.790   3.023   2.009  0.2139  0.4270 -0.7093
 1250SOL    HW2 3994   2.866   3.067   2.133  0.1616 -0.1896 -0.4564
 1251SOL     OW 3995   4.667   4.694   3.065  0.9244  0.4386 -0.9188
 1251SOL    HW1 3996   4.720   4.660   2.994  1.4565 -0.0236 -0.3090
 1251SOL    HW2 3997   4.656   4.620   3.125  1.1105  1.0121 -0.1591
 1252SOL     OW 3998   3.583   4.186   2.920 -0.4692 -0.2081  0.4331
 1252SOL    HW1 3999   3.641   4.159   2.992 -0.4693  0.6909  0.7804
 1252SOL    HW2 4000   3.495   4.172   2.954 -0.4796 -1.6488 -0.1227
 1253SOL     OW 4001   3.951   5.076   0.638  0.3564  0.2569 -0.2255
 1253SOL    HW1 4002   3.965   5.021   0.561 -0.9670  0.8687 -0.9353
 1253SOL    HW2 4003   3.965   5.017   0.712 -0.0619 -0.7977 -0.9547
 1254SOL     OW 4004   4.458   4.110   2.461 -0.0660  0.1216  0.2226
 1254SOL    HW1 4005   4.500   4.025   2.449  3.2874  1.4955  1.1164
 1254SOL    HW2 4006   4.503   4.150   2.535 -0.5277  3.2443 -1.0103
 1255SOL     OW 4007   3.430   4.378   3.125 -0.5477  0.7033  0.0174
 1255SOL    HW1 4008   3.501   4.405   3.067  0.0767 -0.8431 -0.0008
 1255SOL    HW2 4009   3.474   4.335   3.198 -1.3415  2.3953  1.5664
 1256SOL     OW 4010   5.473   1.509   1.252  0.0319 -0.4954  0.8926
 1256SOL    HW1 4011   5.442   1.441   1.192 -1.5553 -1.1407  2.3630
 1256SOL    HW2 4012   5.399   1.569   1.261  0.7186  0.3223  1.1822
 1257SOL     OW 4013   2.261   0.794   0.582 -0.0543 -0.3017  0.3266
 1257SOL    HW1 4014   2.204   0.767   0.510  0.5284 -0.2710 -0.1618
 1257SOL    HW2 4015   2.285   0.712   0.625  0.2774 -0.4084 -0.0503
 1258SOL     OW 4016   2.994   5.917   2.190 -0.1412 -0.5415  0.2157
 1258SOL    HW1 4017   2.939   5.957   2.257 -1.9859 -1.0531 -0.9473
 1258SOL    HW2 4018   2.964   5.955   2.107  1.7047 -0.3530 -0.4188
 1259SOL     OW 4019   3.778   1.553   0.466 -0.0540  0.3683  0.3354
 1259SOL    HW1 4020   3.850   1.573   0.406 -1.4451 -0.8398 -1.8824
 1259SOL    HW2 4021   3.805   1.472   0.509 -0.6869 -0.9926 -1.6940
 1260SOL     OW 4022   1.658   0.904   0.056  0.1969  0.0318 -0.3520
 1260SOL    HW1 4023   1.569   0.894   0.023 -0.3257 -0.9155  1.2378
 1260SOL    HW2 4024   1.698   0.818   0.041 -0.6136 -1.0596  2.8883
 1261SOL     OW 4025   4.455   3.504   0.984 -0.3447 -0.0761  0.3039
 1261SOL    HW1 4026   4.366   3.538   0.997 -0.5159 -0.2127 -0.4762
 1261SOL    HW2 4027   4.506   3.546   1.053 -0.8156  0.7861  0.1529
 1262SOL     OW 4028   4.803   3.370   1.470  0.5612  0.5824  0.6938
 1262SOL    HW1 4029   4.894   3.346   1.491  0.7598  2.1199  1.7747
 1262SOL    HW2 4030   4.758   3.286   1.459  1.7684 -0.2349  1.6992
 1263SOL     OW 4031   5.549   4.792   1.091 -0.3479  0.0476 -0.6323
 1263SOL    HW1 4032   5.553   4.798   0.996 -1.7545  0.9757 -0.6570
 1263SOL    HW2 4033   5.503   4.710   1.108 -1.1434  0.4552 -0.7874
 1264SOL     OW 4034   3.128   6.524   3.076  0.2329  0.0739  0.0528
 1264SOL    HW1 4035   3.084   6.548   3.158  1.2032  0.1166  0.5763
 1264SOL    HW2 4036   3.086   6.579   3.009 -0.6747 -0.0731  0.4932
 1265SOL     OW 4037   1.718   2.131   2.101 -0.0972 -0.1201 -0.0191
 1265SOL    HW1 4038   1.710   2.146   2.196  0.0536  0.0707 -0.0372
 1265SOL    HW2 4039   1.795   2.181   2.075 -1.3368  1.5711 -0.6146
 1266SOL     OW 4040   4.702   4.615   1.939  0.2212 -0.4702  0.4847
 1266SOL    HW1 4041   4.781   4.646   1.895 -0.1298 -1.1353 -0.6358
 1266SOL    HW2 4042   4.639   4.686   1.927 -0.2666 -1.1536 -1.2082
 1267SOL     OW 4043   5.126   1.178   0.886  0.2327 -0.4843 -0.2076
 1267SOL    HW1 4044   5.124   1.212   0.797  1.1450  0.0309 -0.0493
 1267SOL    HW2 4045   5.157   1.088   0.877 -0.1331 -0.5834 -0.4544
 1268SOL     OW 4046   4.856   4.632   2.862 -0.0819  0.4883 -0.0640
 1268SOL    HW1 4047   4.909   4.712   2.857 -0.4472  0.6860 -0.8631
 1268SOL    HW2 4048   4.786   4.645   2.799  0.4585 -0.9113 -0.9980
 1269SOL     OW 4049   2.138   4.918   0.678 -0.3557 -0.4797 -0.1435
 1269SOL    HW1 4050   2.180   4.921   0.592 -1.2014  0.8515 -0.5419
 1269SOL    HW2 4051   2.189   4.978   0.732 -0.5715 -0.3612 -0.0706
 1270SOL     OW 4052   3.441   2.817   1.749  0.1237 -0.5822 -0.1914
 1270SOL    HW1 4053   3.348   2.836   1.757  0.1644 -1.0366  1.8885
 1270SOL    HW2 4054   3.446   2.745   1.685 -0.9304 -0.4820 -0.3955
 1271SOL     OW 4055   2.874   4.762   2.269  0.0967 -0.2824 -0.3657
 1271SOL    HW1 4056   2.816   4.834   2.244 -0.8453 -0.2902  1.5784
 1271SOL    HW2 4057   2.927   4.798   2.340 -0.1179 -1.3691  0.3714
 1272SOL     OW 4058   6.116   5.116   3.290 -0.2246 -0.0610 -0.0263
 1272SOL    HW1 4059   6.116   5.109   3.386 -3.0872  0.0777  0.0866
 1272SOL    HW2 4060   6.094   5.028   3.260  0.5707 -0.0813 -0.5837
 1273SOL     OW 4061   2.710   3.564   2.028 -0.1134 -0.0367  0.6630
 1273SOL    HW1 4062   2.783   3.505   2.010 -1.5814 -1.6856 -0.1167
 1273SOL    HW2 4063   2.664   3.523   2.102  1.1375  2.3488  2.9595
 1274SOL     OW 4064   3.874   4.042   3.044 -0.4111 -0.5052 -0.3453
 1274SOL    HW1 4065   3.909   4.070   2.959 -1.7457  0.1230 -0.7179
 1274SOL    HW2 4066   3.873   3.946   3.038 -0.9726 -0.4635 -1.2671
 1275SOL     OW 4067   1.929   3.115   0.078  0.3616  0.5364  0.3170
 1275SOL    HW1 4068   1.844   3.135   0.115 -0.0053 -1.2259  0.5222
 1275SOL    HW2 4069   1.974   3.065   0.146  0.6776 -0.5041 -0.6225
 1276SOL     OW 4070   2.856   2.789   2.835 -0.2563 -0.7762  0.1700
 1276SOL    HW1 4071   2.891   2.826   2.915  0.8468 -0.2669 -0.5189
 1276SOL    HW2 4072   2.797   2.857   2.801  0.0994 -0.5424  0.0123
 1277SOL     OW 4073   2.731   2.879   0.352  0.0285 -0.1167  0.6357
 1277SOL    HW1 4074   2.716   2.885   0.258 -0.0263  1.7984  0.7177
 1277SOL    HW2 4075   2.646   2.854   0.389  0.0539 -0.8851  0.1939
 1278SOL     OW 4076   3.591   2.320   3.091 -0.8241  0.1048 -0.3172
 1278SOL    HW1 4077   3.583   2.226   3.102 -2.1649  0.1209 -1.0023
 1278SOL    HW2 4078   3.676   2.342   3.130 -0.7367 -1.2955  0.3180
 1279SOL     OW 4079   5.078   2.682   1.268  0.0410 -0.1321 -0.8691
 1279SOL    HW1 4080   5.124   2.732   1.336  0.6495 -2.2962  0.3797
 1279SOL    HW2 4081   5.146   2.661   1.204  0.1287 -0.6605 -0.6073
 1280SOL     OW 4082   5.864   5.273   1.931 -0.1545 -0.2671 -0.3142
 1280SOL    HW1 4083   5.828   5.294   1.844 -1.0470 -2.1247 -0.4464
 1280SOL    HW2 4084   5.787   5.264   1.987  0.2874 -1.0486  0.1900
 1281SOL     OW 4085   6.168   3.029   3.170  0.1682  0.8985  0.1060
 1281SOL    HW1 4086   6.096   3.090   3.184 -1.7049 -0.5460 -2.3772
 1281SOL    HW2 4087   6.174   3.021   3.075  1.9077 -0.9894  0.3141
 1282SOL     OW 4088   3.692   2.627   1.302  0.5862  0.0065  0.3457
 1282SOL    HW1 4089   3.757   2.627   1.231 -2.1707 -1.9490 -2.4521
 1282SOL    HW2 4090   3.718   2.553   1.357  0.8660 -0.6693 -0.6479
 1283SOL     OW 4091   3.346   5.206   2.322  0.1337 -0.2132  0.0806
 1283SOL    HW1 4092   3.421   5.246   2.366  0.4006 -0.6798  0.0624
 1283SOL    HW2 4093   3.331   5.262   2.245  0.0324  0.2673  0.4467
 1284SOL     OW 4094   5.016   5.611   2.516 -0.1717 -0.2459  0.0418
 1284SOL    HW1 4095   5.065   5.530   2.531 -0.5718 -0.8937 -1.8611
 1284SOL    HW2 4096   4.955   5.590   2.446 -1.5224  1.2332  0.6958
 1285SOL     OW 4097   4.184   5.892   1.635  0.8618  0.3865  0.3451
 1285SOL    HW1 4098   4.272   5.927   1.624  1.2035 -0.1329  1.2856
 1285SOL    HW2 4099   4.196   5.797   1.633  0.3511  0.3109  0.6758
 1286SOL     OW 4100   5.061   2.504   0.801  0.5742  0.2611  1.2489
 1286SOL    HW1 4101   5.036   2.592   0.774  1.8497 -0.1229 -1.5289
 1286SOL    HW2 4102   4.978   2.463   0.827 -0.1890  1.9256  1.6077
 1287SOL     OW 4103   3.258   2.169   0.850  0.0703  0.2835  0.1716
 1287SOL    HW1 4104   3.244   2.099   0.913 -1.5280 -0.2013 -0.6679
 1287SOL    HW2 4105   3.273   2.247   0.903 -1.2694 -0.1024  1.1781
 1288SOL     OW 4106   2.236   0.618   0.311  0.0696 -0.1552 -0.6687
 1288SOL    HW1 4107   2.283   0.538   0.335  0.3986  0.2252 -0.0155
 1288SOL    HW2 4108   2.301   0.672   0.266  0.0372  0.0397 -0.4805
 1289SOL     OW 4109   4.407   3.122   2.490  0.5667 -0.4893 -0.0154
 1289SOL    HW1 4110   4.485   3.071   2.471  0.6302  0.2155 -1.9329
 1289SOL    HW2 4111   4.433   3.213   2.472  0.1983  0.1676  2.4109
 1290SOL     OW 4112   0.048   0.387   0.002  0.4866  0.0912 -0.4600
 1290SOL    HW1 4113   0.056   0.299  -0.033 -1.5175 -0.2645 -0.1451
 1290SOL    HW2 4114   0.101   0.387   0.081  0.0197 -1.0455 -0.1323
 1291SOL     OW 4115   5.350   6.457   3.162 -0.0204 -0.3713  0.4792
 1291SOL    HW1 4116   5.389   6.440   3.247  1.3243  0.5582  0.0879
 1291SOL    HW2 4117   5.322   6.549   3.166  0.8379 -0.0521 -0.3334
 1292SOL     OW 4118   5.096   2.257   1.445 -0.0654  0.0374 -1.0579
 1292SOL    HW1 4119   5.012   2.220   1.471  0.0351  0.5324  0.0193
 1292SOL    HW2 4120   5.084   2.352   1.452  1.0175  0.0932  0.6561
 1293SOL     OW 4121   3.737   2.012   1.633  0.3389 -0.2467  0.5388
 1293SOL    HW1 4122   3.684   1.932   1.632 -0.4526  0.2405 -1.4120
 1293SOL    HW2 4123   3.707   2.059   1.711  0.0579 -1.3510  1.1295
 1294SOL     OW 4124   2.676   2.289   1.500  0.0704  0.3469  0.2252
 1294SOL    HW1 4125   2.634   2.221   1.553  0.7093 -0.9562 -0.8721
 1294SOL    HW2 4126   2.767   2.291   1.530  0.3177 -0.0663 -0.4588
 1295SOL     OW 4127   1.904   4.320   2.333  0.4187 -0.3225 -0.5018
 1295SOL    HW1 4128   1.819   4.352   2.304  0.1613 -1.8708 -1.5666
 1295SOL    HW2 4129   1.944   4.283   2.255  1.4212 -1.0136  0.3077
 1296SOL     OW 4130   5.227   1.912   0.779 -0.1042 -0.1474 -0.5132
 1296SOL    HW1 4131   5.268   1.876   0.858 -0.3991 -0.2023 -0.3840
 1296SOL    HW2 4132   5.180   1.989   0.811  1.3506  0.9663 -0.9402
 1297SOL     OW 4133   2.268   5.074   0.890 -0.2072 -0.4213 -0.3985
 1297SOL    HW1 4134   2.181   5.070   0.930  0.1895  0.2986  0.5923
 1297SOL    HW2 4135   2.296   5.164   0.903 -0.0099 -0.1773 -2.2963
 1298SOL     OW 4136   5.235   4.616   1.930 -0.3933 -0.6130 -0.0386
 1298SOL    HW1 4137   5.270   4.627   2.018 -1.6612 -0.0669  0.4251
 1298SOL    HW2 4138   5.303   4.569   1.882  0.4703 -0.5740  1.1234
 1299SOL     OW 4139   6.127   3.691   3.146 -0.1154 -0.1056  0.1126
 1299SOL    HW1 4140   6.200   3.642   3.109  0.0854 -0.1356  0.5523
 1299SOL    HW2 4141   6.072   3.625   3.187 -0.1888 -0.0384  0.1230
 1300SOL     OW 4142   3.086   2.452   1.962  0.2813  0.2637  0.2974
 1300SOL    HW1 4143   3.111   2.419   2.048 -1.1128  2.0175  1.4365
 1300SOL    HW2 4144   3.014   2.512   1.979 -0.3770  0.2833 -2.1666
 1301SOL     OW 4145   4.873   0.923   0.239  0.4517  0.1120  0.8329
 1301SOL    HW1 4146   4.818   0.997   0.265  1.2364  0.2373  2.2683
 1301SOL    HW2 4147   4.851   0.854   0.302  0.8041 -0.3704  0.4358
 1302SOL     OW 4148   4.159   1.975   1.857  0.0437 -0.1902  0.7494
 1302SOL    HW1 4149   4.088   1.911   1.868  0.2088 -0.2608  1.4531
 1302SOL    HW2 4150   4.181   1.971   1.764 -0.6872 -0.3680  0.5757
 1303SOL     OW 4151   1.359   2.351   1.331 -0.1849 -0.2160  0.4249
 1303SOL    HW1 4152   1.333   2.437   1.298 -0.7775 -0.1246  1.1001
 1303SOL    HW2 4153   1.409   2.371   1.410  0.5615 -0.4617  0.0245
 1304SOL     OW 4154   5.442   2.644   2.917 -0.0655  0.1964  0.6047
 1304SOL    HW1 4155   5.470   2.576   2.855 -2.7124 -0.7149  0.2706
 1304SOL    HW2 4156   5.413   2.716   2.861  1.6496  1.1750  0.9360
 1305SOL     OW 4157   2.877   1.368   1.254  0.0749  0.1835  0.6560
 1305SOL    HW1 4158   2.823   1.294   1.283 -0.9117 -0.3045 -2.1712
 1305SOL    HW2 4159   2.960   1.329   1.227  0.3638  0.4234  1.1718
 1306SOL     OW 4160   2.015   1.918   0.597  0.5640 -0.0364  0.1372
 1306SOL    HW1 4161   2.104   1.929   0.563 -0.6166  0.8686 -3.0003
 1306SOL    HW2 4162   1.985   2.006   0.617 -0.7974  0.1742 -2.3921
 1307SOL     OW 4163   0.426   3.613   0.115 -0.5619 -1.0705  0.2170
 1307SOL    HW1 4164   0.418   3.562   0.034 -0.4880 -0.3387 -0.2648
 1307SOL    HW2 4165   0.512   3.590   0.149 -0.4050 -1.0555 -0.1560
 1308SOL     OW 4166   3.249   5.092   1.013 -0.5759 -0.0731 -0.1815
 1308SOL    HW1 4167   3.230   5.003   0.983  0.0426 -0.2005 -0.2108
 1308SOL    HW2 4168   3.271   5.082   1.105 -2.7954  0.3587  0.4501
 1309SOL     OW 4169   2.577   4.618   3.047  0.1505 -0.2325 -0.0794
 1309SOL    HW1 4170   2.560   4.527   3.072 -0.4680 -0.0329  0.2555
 1309SOL    HW2 4171   2.498   4.645   3.001  0.5009  0.0123 -0.5427
 1310SOL     OW 4172   2.552   5.318   1.625  0.3326 -0.0083  0.4265
 1310SOL    HW1 4173   2.554   5.388   1.691  0.1139  0.0722  0.3470
 1310SOL    HW2 4174   2.632   5.269   1.641  2.3569  2.2845 -1.6877
 1311SOL     OW 4175   5.797   2.594   2.636  0.0868  0.4718 -0.7029
 1311SOL    HW1 4176   5.813   2.618   2.545 -0.9458  1.9711 -0.5293
 1311SOL    HW2 4177   5.708   2.626   2.654 -0.4906 -1.4986  0.2916
 1312SOL     OW 4178   6.130   3.476   1.976 -0.0014 -0.2259 -0.4228
 1312SOL    HW1 4179   6.202   3.524   2.016  0.5696 -0.5722 -1.0184
 1312SOL    HW2 4180   6.052   3.506   2.023  0.5875 -0.2305  0.5824
 1313SOL     OW 4181   3.665   3.660   0.285 -0.1310 -0.2684  0.2729
 1313SOL    HW1 4182   3.727   3.667   0.213 -0.5988 -3.6709 -0.6505
 1313SOL    HW2 4183   3.717   3.628   0.359  0.2244  2.6006  1.3859
 1314SOL     OW 4184   4.920   3.377   2.466 -0.3418 -0.2779 -0.3157
 1314SOL    HW1 4185   4.848   3.440   2.468 -0.7916 -0.7400 -1.3698
 1314SOL    HW2 4186   4.896   3.310   2.530 -0.8986 -0.4780 -0.7306
 1315SOL     OW 4187   3.084   5.291   1.970 -0.3139  0.1067 -0.1205
 1315SOL    HW1 4188   3.151   5.227   1.947 -1.2554 -1.1550  0.5401
 1315SOL    HW2 4189   3.063   5.334   1.886  0.3641 -0.3977 -0.5613
 1316SOL     OW 4190   0.930   1.383   1.325 -0.6384  0.1113 -0.2381
 1316SOL    HW1 4191   0.859   1.443   1.301  0.8779  1.4369 -1.7306
 1316SOL    HW2 4192   1.000   1.404   1.263  1.1200 -1.0241  1.2637
 1317SOL     OW 4193   3.423   5.563   2.784  0.3007 -0.0192 -0.3972
 1317SOL    HW1 4194   3.375   5.486   2.752  1.5510 -0.8336 -0.3901
 1317SOL    HW2 4195   3.515   5.536   2.784  0.6370  0.9782  1.0213
 1318SOL     OW 4196   4.470   1.193   0.515 -0.0733  0.1205  0.8749
 1318SOL    HW1 4197   4.482   1.098   0.519 -1.2247 -0.0080  1.5548
 1318SOL    HW2 4198   4.444   1.218   0.604 -3.2743  0.5401 -0.0411
 1319SOL     OW 4199   3.616   5.359   3.183 -0.5322 -0.2955  0.3796
 1319SOL    HW1 4200   3.633   5.426   3.249  0.9793  0.5537 -0.8047
 1319SOL    HW2 4201   3.696   5.356   3.131 -0.9835 -2.2756 -0.2662
 1320SOL     OW 4202   1.893   3.942   0.761 -0.2314  0.1224  0.0806
 1320SOL    HW1 4203   1.965   3.956   0.700 -1.5438 -0.5348 -1.6692
 1320SOL    HW2 4204   1.873   4.030   0.794  2.4589  0.1627  2.0289
 1321SOL     OW 4205   5.288   4.129   1.685 -0.4935  0.1385  0.2154
 1321SOL    HW1 4206   5.226   4.192   1.646 -1.6094 -1.3408 -0.4828
 1321SOL    HW2 4207   5.360   4.125   1.622 -1.3947 -0.8052 -0.7974
 1322SOL     OW 4208   2.185   1.509   0.492  0.2029 -0.0095 -0.3765
 1322SOL    HW1 4209   2.097   1.474   0.478  0.6073 -1.0096 -0.4378
 1322SOL    HW2 4210   2.238   1.434   0.518  1.1765  0.4744 -0.8935
 1323SOL     OW 4211   4.291   2.036   1.287 -0.6473 -0.0510  0.3122
 1323SOL    HW1 4212   4.214   2.020   1.233  0.4685  2.0213 -2.0612
 1323SOL    HW2 4213   4.364   2.041   1.225  0.7850  1.9863  1.9976
 1324SOL     OW 4214   0.972   0.981   0.389  0.5410 -0.5188 -0.3304
 1324SOL    HW1 4215   1.053   1.031   0.399 -0.5992  1.1535  1.4676
 1324SOL    HW2 4216   0.950   0.953   0.478 -0.6320 -1.3073 -0.8452
 1325SOL     OW 4217   1.053   2.812   0.251 -0.2468 -0.6288 -0.1558
 1325SOL    HW1 4218   0.993   2.737   0.254 -0.5924 -0.3805 -0.8251
 1325SOL    HW2 4219   1.001   2.885   0.285  0.4955 -0.9456  1.7750
 1326SOL     OW 4220   2.208   2.680   2.585 -0.1536 -0.3765  0.3791
 1326SOL    HW1 4221   2.231   2.591   2.613  0.6965 -0.4008 -0.3576
 1326SOL    HW2 4222   2.113   2.684   2.595 -0.1289 -1.1372  1.0691
 1327SOL     OW 4223   2.312   3.025   0.064  0.4063  0.0787  0.0422
 1327SOL    HW1 4224   2.280   2.963   0.130 -1.8343 -0.0377 -1.0573
 1327SOL    HW2 4225   2.335   3.103   0.114 -1.5260  0.1043  0.9726
 1328SOL     OW 4226   7.119   5.157   3.342  0.0037  0.0412 -0.2502
 1328SOL    HW1 4227   7.075   5.108   3.273  0.4566 -1.1397  0.2764
 1328SOL    HW2 4228   7.155   5.090   3.400 -3.1667  0.8819  3.0513
 1329SOL     OW 4229   4.544   2.938   0.614  0.0521  0.4200 -0.9827
 1329SOL    HW1 4230   4.470   2.977   0.659  0.0735  0.8944 -1.3455
 1329SOL    HW2 4231   4.590   2.888   0.682  0.1280  1.1801 -0.4663
 1330SOL     OW 4232   1.876   1.360   1.208  0.5463  0.0082  0.1153
 1330SOL    HW1 4233   1.866   1.433   1.269  1.7176  0.4377 -0.1783
 1330SOL    HW2 4234   1.960   1.375   1.165  0.0752 -0.6651 -1.1128
 1331SOL     OW 4235   5.714   1.959   2.087  0.7244  0.0716  0.0427
 1331SOL    HW1 4236   5.788   1.978   2.029  0.8706  0.4796  0.3544
 1331SOL    HW2 4237   5.747   1.980   2.175 -0.2687  1.8196  0.0429
 1332SOL     OW 4238   3.738   1.102   1.387 -0.3843  0.0781  0.2132
 1332SOL    HW1 4239   3.809   1.037   1.379 -0.7662 -0.6055  1.9586
 1332SOL    HW2 4240   3.783   1.186   1.378  0.3033 -0.3660 -0.8788
 1333SOL     OW 4241   2.470   2.527   3.297 -0.1086  0.2282 -0.4450
 1333SOL    HW1 4242   2.537   2.489   3.353  0.2721 -0.0014 -1.0433
 1333SOL    HW2 4243   2.510   2.529   3.210 -0.8565  0.1412 -0.8001
 1334SOL     OW 4244   2.713   4.500   0.523 -0.0222 -0.0399  0.1145
 1334SOL    HW1 4245   2.655   4.557   0.474  0.5483 -0.0154 -0.5428
 1334SOL    HW2 4246   2.749   4.556   0.592 -1.5975 -0.3254  1.2411
 1335SOL     OW 4247   4.778   0.824   0.481 -0.0886 -0.0093 -0.7445
 1335SOL    HW1 4248   4.696   0.865   0.508  0.4533 -0.0229  1.0200
 1335SOL    HW2 4249   4.753   0.736   0.455 -0.5247 -0.4005  0.8677
 1336SOL     OW 4250   3.651   3.372   1.663 -0.1204 -0.0542  0.2477
 1336SOL    HW1 4251   3.703   3.297   1.635  0.7133 -0.5501  2.8539
 1336SOL    HW2 4252   3.707   3.448   1.648 -0.0438 -0.1998 -0.2136
 1337SOL     OW 4253   0.958   0.539   0.315 -0.2279 -0.4111  0.6525
 1337SOL    HW1 4254   1.019   0.582   0.374  1.5588 -0.9872 -0.6860
 1337SOL    HW2 4255   0.956   0.594   0.237 -0.4170 -1.0695  0.1755
 1338SOL     OW 4256   2.851   2.599   0.224 -0.4000  0.5709 -0.1090
 1338SOL    HW1 4257   2.897   2.669   0.269  0.1412  1.6037 -2.1313
 1338SOL    HW2 4258   2.765   2.595   0.266  0.3036  1.0067  1.4036
 1339SOL     OW 4259   1.815   1.458   0.109  0.3073  0.4181  0.2046
 1339SOL    HW1 4260   1.764   1.454   0.190 -0.5087  0.0954 -0.3217
 1339SOL    HW2 4261   1.828   1.366   0.084  0.7276  0.5103  0.0676
 1340SOL     OW 4262   3.454   2.514   3.278  0.6864 -0.2780 -0.4269
 1340SOL    HW1 4263   3.372   2.490   3.320 -0.4375  0.6940 -1.9703
 1340SOL    HW2 4264   3.464   2.449   3.208  0.8037  0.0819 -0.7472
 1341SOL     OW 4265   5.044   0.872   0.556 -0.1186  0.0006 -0.0853
 1341SOL    HW1 4266   4.950   0.866   0.538  0.1081 -0.4390 -1.2385
 1341SOL    HW2 4267   5.073   0.949   0.506  0.1257  0.1497  0.2852
 1342SOL     OW 4268   5.225   2.006   1.514  0.4897  0.1552 -0.1994
 1342SOL    HW1 4269   5.275   1.981   1.436  1.1566  0.2011  0.2096
 1342SOL    HW2 4270   5.206   2.099   1.501  0.5717  0.1551 -0.3224
 1343SOL     OW 4271   2.350   4.229   1.345 -0.4003  0.4851 -0.4544
 1343SOL    HW1 4272   2.361   4.272   1.261 -0.9808  1.9242  0.1715
 1343SOL    HW2 4273   2.289   4.285   1.393  1.8465  1.1280  1.8639
 1344SOL     OW 4274   1.981   3.215   1.291 -0.4212 -1.0655 -0.3218
 1344SOL    HW1 4275   2.040   3.188   1.361 -0.0509 -0.9632 -0.5906
 1344SOL    HW2 4276   1.893   3.209   1.329 -0.1082  1.9800  1.1994
 1345SOL     OW 4277   2.094   4.281   0.603 -0.8871 -0.2575  0.8958
 1345SOL    HW1 4278   2.077   4.370   0.570 -0.5067 -0.7697 -0.7481
 1345SOL    HW2 4279   2.157   4.294   0.674 -0.5437  0.7544  0.4282
 1346SOL     OW 4280   4.139   5.287   2.572 -0.1742  0.3243 -0.4616
 1346SOL    HW1 4281   4.229   5.319   2.567  0.4802 -1.5440 -1.7745
 1346SOL    HW2 4282   4.112   5.278   2.480 -0.4066 -2.4325 -0.2103
 1347SOL     OW 4283   3.495   4.460   1.147  0.0397  0.2418  0.1262
 1347SOL    HW1 4284   3.545   4.487   1.225 -0.5117  0.9835  0.2320
 1347SOL    HW2 4285   3.531   4.513   1.076 -1.8420  2.2032  0.5509
 1348SOL     OW 4286   5.975   5.087   1.737  0.3235 -0.4532 -0.5181
 1348SOL    HW1 4287   5.966   5.080   1.832  1.3715  0.2580 -0.3571
 1348SOL    HW2 4288   6.011   5.175   1.722 -1.1591  0.0088 -1.6724
 1349SOL     OW 4289   2.792   0.509   0.597 -0.1129  0.3681 -0.6843
 1349SOL    HW1 4290   2.737   0.584   0.619 -0.6260 -0.6945  1.9507
 1349SOL    HW2 4291   2.730   0.438   0.579  0.2430 -0.7442  1.9639
 1350SOL     OW 4292   2.921   6.719   3.163 -0.4754 -0.3993  0.7061
 1350SOL    HW1 4293   2.904   6.811   3.141  1.3013 -0.2034 -0.0114
 1350SOL    HW2 4294   2.872   6.669   3.098 -0.4428  0.0651  0.3204
 1351SOL     OW 4295   1.391   3.695   0.637 -0.0943 -0.1494  0.2786
 1351SOL    HW1 4296   1.316   3.638   0.658  0.0575 -1.1999 -1.7607
 1351SOL    HW2 4297   1.467   3.638   0.647  0.2701  0.3655  0.4650
 1352SOL     OW 4298   3.131   1.994   1.409  0.2361  0.3771 -0.3876
 1352SOL    HW1 4299   3.224   2.008   1.426 -0.2320  1.1022  1.8363
 1352SOL    HW2 4300   3.123   1.900   1.395  1.3992  0.4187 -1.5377
 1353SOL     OW 4301   4.791   4.490   0.034  0.2079 -0.5596  0.0184
 1353SOL    HW1 4302   4.885   4.501   0.049  0.0229 -0.1071  0.9415
 1353SOL    HW2 4303   4.774   4.398   0.056  0.5491 -0.8393 -0.8545
 1354SOL     OW 4304   3.604   4.442   0.030  0.1389  0.0697  0.2677
 1354SOL    HW1 4305   3.550   4.449  -0.049  2.0006 -0.3388 -1.1002
 1354SOL    HW2 4306   3.613   4.532   0.061  1.6636  0.6328 -1.6319
 1355SOL     OW 4307   3.048   2.683   1.555 -0.5794  0.1128  0.1677
 1355SOL    HW1 4308   3.124   2.642   1.597  0.1017  1.3235  0.1607
 1355SOL    HW2 4309   3.029   2.627   1.480 -2.0715 -2.3307  2.2104
 1356SOL     OW 4310   1.966   3.466   0.230  0.0814  0.5853  0.4350
 1356SOL    HW1 4311   1.962   3.539   0.169 -1.0874 -0.5928 -0.9742
 1356SOL    HW2 4312   2.014   3.398   0.183  0.4529  0.1569  1.4092
 1357SOL     OW 4313   6.173   4.391   2.471 -0.4024  0.5932 -0.4482
 1357SOL    HW1 4314   6.147   4.415   2.560 -0.8781  1.1265 -0.7235
 1357SOL    HW2 4315   6.127   4.309   2.453  0.4025  0.0080  0.1175
 1358SOL     OW 4316   1.902   4.302   1.577  0.1867 -0.1552  0.4291
 1358SOL    HW1 4317   1.838   4.336   1.640 -1.1118 -0.1864 -0.8199
 1358SOL    HW2 4318   1.859   4.226   1.538  0.9499 -0.1148 -0.5189
 1359SOL     OW 4319   2.806   2.029   0.544 -0.4082 -0.2805 -0.4585
 1359SOL    HW1 4320   2.891   1.985   0.540  0.2083  0.8408 -0.2416
 1359SOL    HW2 4321   2.817   2.096   0.612 -0.7188  1.3442 -1.9280
 1360SOL     OW 4322   2.387   2.563   1.938  0.2632  0.3232  0.4449
 1360SOL    HW1 4323   2.404   2.620   2.013  2.0583  0.1507  0.1990
 1360SOL    HW2 4324   2.448   2.490   1.948 -1.5893 -1.3025  0.4398
 1361SOL     OW 4325   4.116   5.448   1.373 -0.5355  0.1359  0.0961
 1361SOL    HW1 4326   4.165   5.476   1.450  0.2612 -0.6997 -0.0946
 1361SOL    HW2 4327   4.053   5.519   1.358 -0.2778  0.6057  1.1267
 1362SOL     OW 4328   0.435   0.330   0.178  0.2684 -0.6984  0.4278
 1362SOL    HW1 4329   0.374   0.265   0.212 -1.5421  1.7776  2.2874
 1362SOL    HW2 4330   0.500   0.340   0.248 -0.3796  0.5476  0.8861
 1363SOL     OW 4331   4.183   2.800   0.412  0.0223 -0.4588  0.4456
 1363SOL    HW1 4332   4.219   2.752   0.487 -1.2062 -0.0053  1.3668
 1363SOL    HW2 4333   4.108   2.848   0.449 -1.3739 -1.1912 -1.3296
 1364SOL     OW 4334   1.642   3.319   1.187  0.1166  0.6259 -0.3745
 1364SOL    HW1 4335   1.571   3.256   1.190  0.4277  0.2663 -0.5459
 1364SOL    HW2 4336   1.639   3.362   1.273 -0.4689  0.8024 -0.4748
 1365SOL     OW 4337   5.717   4.442   2.891 -0.6400 -0.2650  0.2786
 1365SOL    HW1 4338   5.661   4.389   2.947 -1.6593  0.1598 -0.3080
 1365SOL    HW2 4339   5.658   4.507   2.853  0.2272  0.1037 -0.4750
 1366SOL     OW 4340   2.451   1.878   1.065  0.0192 -0.7866  0.5679
 1366SOL    HW1 4341   2.460   1.972   1.080  1.9939 -0.6078 -1.2271
 1366SOL    HW2 4342   2.358   1.866   1.045  0.0200  1.1345 -0.9316
 1367SOL     OW 4343   3.479   3.596   2.053  0.7869  0.0588  0.2035
 1367SOL    HW1 4344   3.514   3.645   2.127 -1.4995  1.1697  0.6575
 1367SOL    HW2 4345   3.536   3.520   2.045  1.7926  0.5052  2.3720
 1368SOL     OW 4346   3.338   5.469   3.154 -0.0591  0.7715 -0.8098
 1368SOL    HW1 4347   3.406   5.406   3.131  1.8834  2.8095 -1.0415
 1368SOL    HW2 4348   3.260   5.439   3.108  0.6256 -1.7048 -0.4900
 1369SOL     OW 4349   2.493   2.251   0.302 -0.2425 -0.0358 -0.1202
 1369SOL    HW1 4350   2.464   2.279   0.215  0.6090  0.5320 -0.2480
 1369SOL    HW2 4351   2.469   2.159   0.308  0.0520 -0.1880 -1.1264
 1370SOL     OW 4352   5.352   1.883   1.018  0.1834  0.2535  0.3031
 1370SOL    HW1 4353   5.428   1.852   1.067 -0.2318  0.1370  0.8889
 1370SOL    HW2 4354   5.350   1.978   1.033 -0.2497  0.1500  0.9772
 1371SOL     OW 4355   2.987   5.282   2.268 -0.6106 -0.4006 -0.1103
 1371SOL    HW1 4356   3.020   5.197   2.298  0.6180  0.0705 -0.0893
 1371SOL    HW2 4357   2.993   5.277   2.172 -1.0963 -0.5452 -0.1376
 1372SOL     OW 4358   3.032   5.879   2.988 -0.6477  0.7024  0.2045
 1372SOL    HW1 4359   3.114   5.915   2.954 -0.8433  1.7021  0.7511
 1372SOL    HW2 4360   2.977   5.955   3.003 -1.6885  0.0367 -0.1571
 1373SOL     OW 4361   2.360   5.748   1.706  0.0739  0.2963  0.6107
 1373SOL    HW1 4362   2.364   5.672   1.648  0.0500 -0.8635  2.0752
 1373SOL    HW2 4363   2.449   5.761   1.736  0.4019  1.9292 -0.9025
 1374SOL     OW 4364   3.069   4.823   2.464  0.3913 -0.3548 -0.0022
 1374SOL    HW1 4365   3.105   4.883   2.398  0.4111  0.8930  1.1149
 1374SOL    HW2 4366   3.108   4.738   2.442 -1.5046 -0.5650 -3.0951
 1375SOL     OW 4367   2.045   4.550   0.597 -0.0419 -0.2725  0.3456
 1375SOL    HW1 4368   2.069   4.607   0.671 -1.2266 -2.3507  2.4583
 1375SOL    HW2 4369   1.957   4.520   0.617  0.2664 -2.2968 -1.0411
 1376SOL     OW 4370   4.277   4.810   3.351 -0.1926  0.0009 -0.4124
 1376SOL    HW1 4371   4.328   4.791   3.272  0.2337 -0.9626  0.0690
 1376SOL    HW2 4372   4.308   4.895   3.380  1.0737 -0.5101 -0.1996
 1377SOL     OW 4373   4.489   2.536   1.363 -0.0860 -0.3108  0.3089
 1377SOL    HW1 4374   4.400   2.526   1.396 -0.3585  0.8067 -0.0622
 1377SOL    HW2 4375   4.480   2.527   1.268  0.4095 -1.5218  0.3494
 1378SOL     OW 4376   1.876   0.721   0.032  0.8173 -0.3682  0.6943
 1378SOL    HW1 4377   1.928   0.795   0.064 -0.0004  0.8739 -0.7074
 1378SOL    HW2 4378   1.923   0.692  -0.046  0.5029 -0.5570  0.5762
 1379SOL     OW 4379   3.034   5.860   2.582  0.0667  0.0083  0.7648
 1379SOL    HW1 4380   3.093   5.884   2.510 -1.2577 -1.2018 -0.8221
 1379SOL    HW2 4381   3.090   5.813   2.644  0.7462 -1.5931 -0.9488
 1380SOL     OW 4382   2.995   1.668   1.678 -0.1218  0.7261 -0.5492
 1380SOL    HW1 4383   3.014   1.664   1.584 -0.5514  0.1073 -0.6148
 1380SOL    HW2 4384   2.915   1.721   1.684  0.5707  1.8021 -0.4188
 1381SOL     OW 4385   6.823   4.461   3.270  0.1514 -0.6250 -0.6250
 1381SOL    HW1 4386   6.794   4.546   3.305 -0.9742 -1.1783 -0.1671
 1381SOL    HW2 4387   6.763   4.443   3.198  0.1495 -1.2041 -0.4830
 1382SOL     OW 4388   2.169   4.626   1.658  0.3452 -0.1742 -0.7358
 1382SOL    HW1 4389   2.220   4.550   1.687  0.7436  0.3840  0.0603
 1382SOL    HW2 4390   2.125   4.596   1.578  0.4857 -1.2418 -0.4310
 1383SOL     OW 4391   1.503   4.122   1.796 -0.2546 -0.0561  0.0357
 1383SOL    HW1 4392   1.596   4.099   1.802 -0.4857 -1.1771 -0.5174
 1383SOL    HW2 4393   1.475   4.090   1.711 -1.4735 -0.9726  0.7449
 1384SOL     OW 4394   3.270   2.860   0.462  0.2423  0.0318 -0.5728
 1384SOL    HW1 4395   3.321   2.896   0.389  0.8161  0.4299  0.0152
 1384SOL    HW2 4396   3.330   2.799   0.505  0.5650  1.1804  0.6713
 1385SOL     OW 4397   4.468   4.297   2.180  0.5724 -0.1676 -0.2655
 1385SOL    HW1 4398   4.408   4.247   2.125  1.1070 -1.5167  0.3299
 1385SOL    HW2 4399   4.552   4.252   2.171  1.5105  1.6288 -1.0112
 1386SOL     OW 4400   3.120   5.884   3.266 -0.5803 -0.0718  0.0695
 1386SOL    HW1 4401   3.151   5.805   3.309  0.2264 -0.5258 -1.2861
 1386SOL    HW2 4402   3.107   5.858   3.175 -1.3903  1.0768 -0.1636
 1387SOL     OW 4403   6.507   3.151   2.887  0.5191  0.0685  0.1057
 1387SOL    HW1 4404   6.477   3.098   2.960  0.0369 -0.2949 -0.3519
 1387SOL    HW2 4405   6.467   3.111   2.809 -0.4149  1.4836 -0.1897
 1388SOL     OW 4406   2.286   5.363   1.567 -0.6444 -0.2419 -0.1239
 1388SOL    HW1 4407   2.380   5.348   1.572 -0.6503 -0.0571  0.5890
 1388SOL    HW2 4408   2.277   5.429   1.498 -0.3986 -1.3818 -1.2894
 1389SOL     OW 4409   2.218   3.195   2.967  0.1110 -0.4173  0.6479
 1389SOL    HW1 4410   2.213   3.101   2.983 -0.3643 -0.6343 -0.6194
 1389SOL    HW2 4411   2.154   3.210   2.897  0.4587  0.7849  0.5705
 1390SOL     OW 4412   5.321   2.484   2.281 -0.0492  0.0188  0.4186
 1390SOL    HW1 4413   5.286   2.404   2.240  0.2370  0.0361  0.1391
 1390SOL    HW2 4414   5.269   2.555   2.244 -0.2082 -0.0265  0.5580
 1391SOL     OW 4415   4.652   2.787   0.367  0.3978 -0.2902  0.0137
 1391SOL    HW1 4416   4.619   2.844   0.436  0.5977  0.9425 -0.8700
 1391SOL    HW2 4417   4.621   2.829   0.286  2.7610  0.0409 -0.7882
 1392SOL     OW 4418   6.004   4.601   2.078 -0.0024  0.2380 -0.4057
 1392SOL    HW1 4419   6.046   4.651   2.147 -0.0335  0.3588 -0.4744
 1392SOL    HW2 4420   5.912   4.596   2.104  0.0906 -0.1884 -0.1597
 1393SOL     OW 4421   1.966   2.657   1.784  0.0405  0.1642 -0.9880
 1393SOL    HW1 4422   2.044   2.602   1.777 -0.1191  0.0192 -1.6829
 1393SOL    HW2 4423   1.932   2.638   1.872  3.5756  4.0635  1.6202
 1394SOL     OW 4424   5.804   3.786   2.207 -0.2081  0.5241  0.3234
 1394SOL    HW1 4425   5.709   3.792   2.212 -0.2110 -0.0588  1.2298
 1394SOL    HW2 4426   5.821   3.696   2.177  0.0576  0.6861 -0.0222
 1395SOL     OW 4427   2.406   2.160   1.891  0.0572  0.4636 -0.5689
 1395SOL    HW1 4428   2.392   2.065   1.894 -0.2717  0.5211  1.1220
 1395SOL    HW2 4429   2.321   2.195   1.865 -0.5690  0.3704  1.1700
 1396SOL     OW 4430   4.442   6.240   3.050  0.0667  0.1969  0.3120
 1396SOL    HW1 4431   4.404   6.154   3.068  0.6766  0.0238  0.8244
 1396SOL    HW2 4432   4.509   6.251   3.117  1.3317  0.2188 -0.8836
 1397SOL     OW 4433   1.943   2.704   2.571 -0.2039 -0.1021  0.7081
 1397SOL    HW1 4434   1.913   2.729   2.483  0.8291  0.6382  0.5478
 1397SOL    HW2 4435   1.899   2.621   2.588 -0.5519 -0.1764 -0.4439
 1398SOL     OW 4436   5.802   5.918   2.670 -0.7225 -0.3421 -0.8739
 1398SOL    HW1 4437   5.736   5.980   2.638 -0.4737  0.4608  0.1086
 1398SOL    HW2 4438   5.862   5.907   2.597 -0.4438  1.0439 -0.8879
 1399SOL     OW 4439   4.045   4.441   0.264  0.6090  0.1993  0.1788
 1399SOL    HW1 4440   4.004   4.428   0.178  1.7101 -0.4068 -0.2819
 1399SOL    HW2 4441   4.138   4.424   0.248  0.6825 -0.9806  1.7182
 1400SOL     OW 4442   3.110   2.619   1.038  0.1300 -0.4755 -0.1587
 1400SOL    HW1 4443   3.108   2.634   0.943 -2.7919 -1.5599 -0.3892
 1400SOL    HW2 4444   3.032   2.664   1.071  0.7626 -0.6384  1.6645
 1401SOL     OW 4445   2.574   1.544   0.137 -0.8259  0.4464  0.1016
 1401SOL    HW1 4446   2.536   1.555   0.050  0.3963 -0.0359 -0.5036
 1401SOL    HW2 4447   2.498   1.537   0.195 -1.6869  2.6528 -0.6329
 1402SOL     OW 4448   5.353   4.901   2.153  0.1923  0.7728  0.2325
 1402SOL    HW1 4449   5.336   4.807   2.162 -2.5603  0.9959 -1.6509
 1402SOL    HW2 4450   5.393   4.910   2.067  0.8526  1.3266  0.5867
 1403SOL     OW 4451   2.735   6.170   3.187  0.2929 -0.0892 -0.1929
 1403SOL    HW1 4452   2.714   6.082   3.219  0.7294 -0.3006 -0.4702
 1403SOL    HW2 4453   2.780   6.154   3.104  1.3653  0.3471  0.2886
 1404SOL     OW 4454   2.850   3.754   3.234  0.3239 -0.0600 -0.3156
 1404SOL    HW1 4455   2.921   3.773   3.172  2.3412 -1.9032  1.2728
 1404SOL    HW2 4456   2.860   3.821   3.303 -0.3404  0.4648 -0.7138
 1405SOL     OW 4457   3.331   1.093   0.877  0.1021 -0.1726 -1.0054
 1405SOL    HW1 4458   3.275   1.055   0.809  1.1469 -1.9275 -0.9389
 1405SOL    HW2 4459   3.401   1.029   0.889  0.9044  0.9291  0.4887
 1406SOL     OW 4460   3.337   1.670   0.806 -1.0421 -0.2232  0.0144
 1406SOL    HW1 4461   3.297   1.665   0.719 -0.6406 -0.8475 -0.1389
 1406SOL    HW2 4462   3.270   1.712   0.860 -1.0108  0.8742 -0.7515
 1407SOL     OW 4463   3.038   3.309   0.797  0.1096  0.4426 -0.2745
 1407SOL    HW1 4464   2.979   3.234   0.787 -1.0421  1.4172 -1.1014
 1407SOL    HW2 4465   2.980   3.384   0.813  1.1962  1.2594 -0.0069
 1408SOL     OW 4466   3.504   3.539   0.771 -0.7088  0.1306  0.2985
 1408SOL    HW1 4467   3.534   3.465   0.824 -0.6750  0.7756  1.1890
 1408SOL    HW2 4468   3.430   3.504   0.721 -2.2282  0.1023  2.4529
 1409SOL     OW 4469   0.751   1.760   0.041  0.0990  0.1488  0.5549
 1409SOL    HW1 4470   0.777   1.671   0.065  0.8006  0.5028  1.1069
 1409SOL    HW2 4471   0.778   1.814   0.114 -0.2199  0.8395  0.1690
 1410SOL     OW 4472   1.036   3.576   1.228 -0.3656  0.5844 -0.0711
 1410SOL    HW1 4473   0.999   3.591   1.315  1.5878  2.7121  0.4676
 1410SOL    HW2 4474   0.990   3.637   1.171  1.3181  2.3667  0.3743
 1411SOL     OW 4475   5.946   2.515   1.906 -0.1495  0.2245 -0.4260
 1411SOL    HW1 4476   5.957   2.513   1.811  0.1581  2.5312 -0.5004
 1411SOL    HW2 4477   6.014   2.575   1.936  0.0677 -0.8296  1.3352
 1412SOL     OW 4478   0.266   0.639   0.073 -0.1090 -0.0109 -0.5103
 1412SOL    HW1 4479   0.205   0.578   0.115  0.3408 -0.2090 -0.1408
 1412SOL    HW2 4480   0.352   0.598   0.083  0.1754  0.5959 -0.4146
 1413SOL     OW 4481   2.643   4.378   0.256  0.0349  0.5365  0.0603
 1413SOL    HW1 4482   2.617   4.462   0.219  1.3586  1.0538  0.2704
 1413SOL    HW2 4483   2.675   4.400   0.344 -1.3582 -0.4415  0.8655
 1414SOL     OW 4484   1.091   2.196   1.107  0.0160  0.4830  0.1984
 1414SOL    HW1 4485   1.021   2.154   1.057 -0.6247  0.6263  0.9460
 1414SOL    HW2 4486   1.167   2.139   1.095 -0.6983 -0.6281  0.7561
 1415SOL     OW 4487   2.350   5.914   2.043  0.1284 -0.3335  0.0431
 1415SOL    HW1 4488   2.433   5.900   2.088  0.2847  0.0158 -0.1327
 1415SOL    HW2 4489   2.329   5.830   2.003  1.5037  0.1210 -1.7554
 1416SOL     OW 4490   2.880   5.518   2.381 -0.3798  0.1776 -0.2061
 1416SOL    HW1 4491   2.923   5.432   2.376  0.2956  0.3919  1.3538
 1416SOL    HW2 4492   2.930   5.573   2.323 -0.2146 -0.2440 -0.4696
 1417SOL     OW 4493   1.530   4.090   0.234  0.3816 -0.1489 -0.6763
 1417SOL    HW1 4494   1.525   4.133   0.149  1.8242  0.3558 -0.5419
 1417SOL    HW2 4495   1.612   4.122   0.272  0.3938 -1.3307  0.3674
 1418SOL     OW 4496   4.058   6.803   2.922 -0.5500 -0.1613 -0.0520
 1418SOL    HW1 4497   4.103   6.764   2.997  2.3369  0.5285 -1.2815
 1418SOL    HW2 4498   4.023   6.886   2.955 -1.8045 -1.1132  1.1553
 1419SOL     OW 4499   2.979   2.188   2.758  0.1336  0.2010 -0.1613
 1419SOL    HW1 4500   2.890   2.216   2.779 -0.0490 -0.2830 -0.2566
 1419SOL    HW2 4501   3.031   2.212   2.835 -0.1688  0.0972  0.0776
 1420SOL     OW 4502   4.497   3.130   1.778  0.4887  0.0568 -0.1705
 1420SOL    HW1 4503   4.470   3.103   1.690  0.1639  1.2482 -0.4566
 1420SOL    HW2 4504   4.549   3.209   1.764 -1.0169  1.2863  0.7906
 1421SOL     OW 4505   1.376   2.204   1.661 -0.1638  0.4011 -0.2443
 1421SOL    HW1 4506   1.432   2.181   1.735 -0.2659 -1.2876 -0.6474
 1421SOL    HW2 4507   1.409   2.288   1.630  0.1214  0.9570  1.4747
 1422SOL     OW 4508   1.915   2.231   1.127  0.4014  0.4561 -0.1161
 1422SOL    HW1 4509   1.964   2.296   1.178 -1.8390  0.9599  1.5320
 1422SOL    HW2 4510   1.939   2.147   1.167  0.4518  0.6271  0.2209
 1423SOL     OW 4511   3.363   1.697   1.080 -0.3775  0.0046 -0.0875
 1423SOL    HW1 4512   3.284   1.651   1.107 -0.6305 -0.0102 -0.8159
 1423SOL    HW2 4513   3.365   1.687   0.985  1.9746 -2.3901  0.1019
 1424SOL     OW 4514   5.748   5.247   1.655  0.0076 -0.7138  0.1392
 1424SOL    HW1 4515   5.794   5.298   1.588  0.3940 -0.2406  0.7539
 1424SOL    HW2 4516   5.801   5.168   1.665 -0.4578 -1.1360 -0.6387
 1425SOL     OW 4517   3.379   1.311   1.569  0.4614 -0.1358  0.0291
 1425SOL    HW1 4518   3.452   1.353   1.524  2.4298 -0.5828  2.5373
 1425SOL    HW2 4519   3.336   1.382   1.617 -0.0583 -0.0527 -0.5522
 1426SOL     OW 4520   4.878   5.165   1.827  0.2514 -0.6054 -0.0413
 1426SOL    HW1 4521   4.879   5.097   1.760  0.7290 -0.5418 -0.1024
 1426SOL    HW2 4522   4.970   5.181   1.847  0.1499  0.0309 -0.0430
 1427SOL     OW 4523   4.432   4.822   3.111 -0.5549 -0.1581  0.1965
 1427SOL    HW1 4524   4.519   4.781   3.105 -0.0808  1.0137 -1.9130
 1427SOL    HW2 4525   4.376   4.768   3.055 -1.3323 -1.1036  1.8083
 1428SOL     OW 4526   3.268   0.450   0.660  0.2416  0.2972  0.1756
 1428SOL    HW1 4527   3.266   0.488   0.572  0.5919 -1.8349 -0.8135
 1428SOL    HW2 4528   3.175   0.436   0.682  0.0781  2.0446  0.7565
 1429SOL     OW 4529   4.825   4.139   1.000 -0.1997  0.3690  0.0997
 1429SOL    HW1 4530   4.840   4.204   1.068  0.3547  1.0101 -0.6194
 1429SOL    HW2 4531   4.736   4.108   1.016 -0.5416  1.4335  0.3509
 1430SOL     OW 4532   4.163   4.318   1.047  0.3345  0.1254  0.3574
 1430SOL    HW1 4533   4.123   4.268   1.119 -1.4869  0.1563 -0.5726
 1430SOL    HW2 4534   4.231   4.370   1.090 -0.5332 -0.0331  2.0287
 1431SOL     OW 4535   1.325   5.618   1.365  0.3215 -0.0574 -0.0336
 1431SOL    HW1 4536   1.386   5.595   1.435 -1.5742 -1.0877  1.3503
 1431SOL    HW2 4537   1.308   5.535   1.320 -0.1459  0.2089 -0.3559
 1432SOL     OW 4538   2.520   1.992   2.155 -0.4633 -0.0629  0.0736
 1432SOL    HW1 4539   2.510   2.030   2.243  1.4485  0.6262  0.0391
 1432SOL    HW2 4540   2.590   2.044   2.114 -0.4510 -1.1777 -1.3983
 1433SOL     OW 4541   7.104   4.175   3.394 -0.2952  0.8198 -0.8707
 1433SOL    HW1 4542   7.049   4.251   3.413 -0.4787  0.2474  1.0810
 1433SOL    HW2 4543   7.050   4.119   3.338 -1.1849  0.9140 -0.1353
 1434SOL     OW 4544   1.491   2.424   1.546  0.0948 -0.0084  0.0748
 1434SOL    HW1 4545   1.544   2.450   1.621 -0.2051  0.3722  0.1533
 1434SOL    HW2 4546   1.520   2.482   1.475 -0.2469  0.2294  0.1295
 1435SOL     OW 4547   3.707   3.637   3.013 -0.3835  0.2666 -0.7866
 1435SOL    HW1 4548   3.758   3.692   2.953 -0.2021 -1.0673 -1.9109
 1435SOL    HW2 4549   3.674   3.566   2.958 -2.0132  0.1442  0.2758
 1436SOL     OW 4550   4.545   2.182   2.430  0.0387  0.0529 -0.2501
 1436SOL    HW1 4551   4.515   2.168   2.520 -0.2800 -0.8692 -0.4862
 1436SOL    HW2 4552   4.484   2.246   2.393 -0.7144 -0.6577 -0.2520
 1437SOL     OW 4553   2.921   1.708   1.145 -0.4879 -0.1451  0.3010
 1437SOL    HW1 4554   2.860   1.643   1.111 -1.7313  0.1330  1.8735
 1437SOL    HW2 4555   3.004   1.689   1.102 -1.4775 -1.0701 -1.2630
 1438SOL     OW 4556   4.147   3.277   0.636  0.2661  0.0075  0.4460
 1438SOL    HW1 4557   4.090   3.353   0.645  0.8573  0.5356 -0.1470
 1438SOL    HW2 4558   4.093   3.211   0.593  0.5407  1.0682 -1.6774
 1439SOL     OW 4559   1.522   1.732   1.846 -0.2065 -0.2585 -0.0812
 1439SOL    HW1 4560   1.576   1.740   1.768  0.0561 -1.0229  0.0223
 1439SOL    HW2 4561   1.565   1.788   1.911  0.1253 -0.3981 -0.1821
 1440SOL     OW 4562   6.456   6.881   3.091  0.8731 -0.2138  0.2125
 1440SOL    HW1 4563   6.470   6.794   3.129 -1.2127 -0.0118  1.6724
 1440SOL    HW2 4564   6.478   6.941   3.161  0.2282  0.3260 -0.0345
 1441SOL     OW 4565   4.523   3.859   2.415 -0.1381  0.1483 -0.5602
 1441SOL    HW1 4566   4.572   3.830   2.492 -0.8278 -1.2528 -0.6162
 1441SOL    HW2 4567   4.447   3.802   2.412 -2.7410  3.2830  0.4675
 1442SOL     OW 4568   6.602   5.653   2.705  0.4432  0.8399  0.0993
 1442SOL    HW1 4569   6.662   5.727   2.714 -0.3274  1.3200  1.5275
 1442SOL    HW2 4570   6.636   5.587   2.766  0.1651  0.6795  0.0806
 1443SOL     OW 4571   4.054   5.270   2.298  0.2198  0.1525  0.5224
 1443SOL    HW1 4572   4.136   5.310   2.272  1.1014 -1.6329  0.3906
 1443SOL    HW2 4573   4.005   5.257   2.217  0.2035  0.3892  0.4956
 1444SOL     OW 4574   2.166   2.269   1.786 -0.5495 -0.1374 -1.0050
 1444SOL    HW1 4575   2.170   2.364   1.785 -0.7962 -0.0515  1.5111
 1444SOL    HW2 4576   2.082   2.249   1.828  0.9009 -1.3774  1.5172
 1445SOL     OW 4577   2.666   5.629   2.134  0.1035  0.0908  0.2146
 1445SOL    HW1 4578   2.732   5.698   2.146  0.1644 -0.1957  1.6389
 1445SOL    HW2 4579   2.704   5.572   2.067  0.2903  1.1469 -0.6043
 1446SOL     OW 4580   6.763   3.601   3.199  0.0414  0.2857  0.6170
 1446SOL    HW1 4581   6.709   3.533   3.159 -1.1147  1.3954  0.2442
 1446SOL    HW2 4582   6.846   3.556   3.220 -0.7570 -1.2696  0.5834
 1447SOL     OW 4583   3.270   2.363   1.074 -0.4098 -0.7788 -0.2591
 1447SOL    HW1 4584   3.356   2.395   1.048 -0.1873 -1.7706 -0.8087
 1447SOL    HW2 4585   3.213   2.440   1.071  0.5815  0.0402  0.7931
 1448SOL     OW 4586   3.395   3.621   0.268 -0.6793  0.1949 -0.0528
 1448SOL    HW1 4587   3.490   3.620   0.282 -0.9597  0.9316  2.2050
 1448SOL    HW2 4588   3.385   3.654   0.178  1.2012 -0.5276 -0.5713
 1449SOL     OW 4589   3.665   5.488   2.890  0.5255  0.1057  0.4927
 1449SOL    HW1 4590   3.696   5.578   2.895  1.9543 -0.2099 -1.4693
 1449SOL    HW2 4591   3.728   5.438   2.943  0.7387  0.0389  0.1760
 1450SOL     OW 4592   5.336   4.748   2.766  0.4352 -0.3227 -0.2698
 1450SOL    HW1 4593   5.312   4.804   2.692  3.1015  0.5529 -0.6050
 1450SOL    HW2 4594   5.383   4.675   2.726 -1.1334 -1.7023  0.3392
 1451SOL     OW 4595   1.848   2.194   1.434 -0.1608  0.3399  0.0260
 1451SOL    HW1 4596   1.898   2.275   1.427  1.4295 -0.7096 -1.5292
 1451SOL    HW2 4597   1.834   2.182   1.528 -0.9053  2.6557  0.2585
 1452SOL     OW 4598   0.967   3.291   0.108  0.5515  0.1668 -0.4578
 1452SOL    HW1 4599   1.007   3.369   0.147  3.1988 -1.7813  1.1070
 1452SOL    HW2 4600   1.008   3.284   0.022 -1.7255  1.8791 -1.7616
 1453SOL     OW 4601   3.900   2.586   0.142  0.0875 -0.2882  0.2099
 1453SOL    HW1 4602   3.962   2.640   0.093  0.7199 -1.0929  0.1016
 1453SOL    HW2 4603   3.907   2.499   0.102 -0.2572 -0.6683  0.9522
 1454SOL     OW 4604   3.840   4.714   2.211  0.1166 -0.3027 -0.5278
 1454SOL    HW1 4605   3.914   4.661   2.240  0.4249 -0.1471 -1.0243
 1454SOL    HW2 4606   3.879   4.794   2.175 -0.2572 -0.4396 -1.2715
 1455SOL     OW 4607   1.806   3.413   0.992 -0.1770 -0.3621 -0.1876
 1455SOL    HW1 4608   1.825   3.492   1.043  0.5952 -0.5865 -0.1102
 1455SOL    HW2 4609   1.742   3.366   1.046  0.0820 -0.2463  0.2310
 1456SOL     OW 4610   2.802   2.553   1.371  0.1227  0.2618  0.1169
 1456SOL    HW1 4611   2.844   2.471   1.396  0.3100 -0.2921 -1.8690
 1456SOL    HW2 4612   2.720   2.527   1.331 -0.4960  1.1528  0.7599
 1457SOL     OW 4613   0.898   2.918   0.567 -0.2062  0.4485  0.0959
 1457SOL    HW1 4614   0.831   2.853   0.548 -0.3718  0.3916  0.8619
 1457SOL    HW2 4615   0.850   2.999   0.582 -0.0557  0.5596 -0.0133
 1458SOL     OW 4616   2.493   5.344   2.680  0.0318 -0.2366  0.1134
 1458SOL    HW1 4617   2.583   5.365   2.655 -0.1127 -0.0917 -0.2966
 1458SOL    HW2 4618   2.502   5.297   2.763  0.2852  2.7000  1.9158
 1459SOL     OW 4619   4.905   2.751   2.992  0.3746 -0.1418 -0.1106
 1459SOL    HW1 4620   4.993   2.771   3.025  0.8799  1.3964 -2.1997
 1459SOL    HW2 4621   4.920   2.716   2.904 -1.0963 -0.2092 -0.3602
 1460SOL     OW 4622   4.468   4.952   2.776  0.2266 -0.2034  0.3814
 1460SOL    HW1 4623   4.450   4.983   2.687  0.2623 -1.5349 -0.1172
 1460SOL    HW2 4624   4.381   4.938   2.814  0.1514  2.4557  1.3806
 1461SOL     OW 4625   5.465   3.790   1.070  0.1096  0.3812 -0.0451
 1461SOL    HW1 4626   5.409   3.751   1.137 -0.8678  3.2829  0.9832
 1461SOL    HW2 4627   5.545   3.814   1.116  1.6096 -2.1291 -1.1286
 1462SOL     OW 4628   4.109   2.728   2.542  0.1795  0.2515 -0.6323
 1462SOL    HW1 4629   4.176   2.787   2.509  0.6861 -1.2045 -2.3266
 1462SOL    HW2 4630   4.028   2.779   2.537  1.1138  2.1459  1.7665
 1463SOL     OW 4631   4.239   2.892   0.159  0.6666  0.2017 -0.8075
 1463SOL    HW1 4632   4.327   2.918   0.186  0.0302  3.8021 -1.7899
 1463SOL    HW2 4633   4.206   2.840   0.233  3.4959 -1.2255 -0.3896
 1464SOL     OW 4634   3.944   2.070   1.261  0.3222  0.5385  0.2852
 1464SOL    HW1 4635   3.961   1.996   1.203  2.0438  1.3582 -0.2986
 1464SOL    HW2 4636   3.965   2.036   1.349 -2.4698 -0.7587  0.5710
 1465SOL     OW 4637   2.837   5.694   3.079 -0.3516 -0.4243 -0.6327
 1465SOL    HW1 4638   2.918   5.745   3.077 -0.4113 -0.2212  0.7597
 1465SOL    HW2 4639   2.800   5.703   2.992  0.0256  1.2950 -0.6486
 1466SOL     OW 4640   2.366   3.968   2.456 -0.0777 -0.0500  0.3207
 1466SOL    HW1 4641   2.378   3.919   2.375 -0.4862  2.2676 -1.2470
 1466SOL    HW2 4642   2.338   3.902   2.520 -0.1448 -1.8938 -1.4944
 1467SOL     OW 4643   2.221   0.754  -0.005 -0.5904  0.4009  0.3146
 1467SOL    HW1 4644   2.244   0.774   0.086 -1.7179  1.1897  0.4582
 1467SOL    HW2 4645   2.235   0.837  -0.052 -0.9946  0.2912 -0.0127
 1468SOL     OW 4646   0.691   1.179   0.638 -0.2208 -0.0386 -0.4352
 1468SOL    HW1 4647   0.713   1.233   0.562 -1.2637  0.2765 -0.5201
 1468SOL    HW2 4648   0.596   1.174   0.638 -0.1733 -1.5746 -0.2091
 1469SOL     OW 4649   1.140   2.037   0.777  0.3561 -0.2104  0.0593
 1469SOL    HW1 4650   1.127   1.945   0.800  0.7117 -0.1421  0.5710
 1469SOL    HW2 4651   1.225   2.038   0.732 -0.9366 -0.5431 -2.5568
 1470SOL     OW 4652   5.896   2.126   1.653  0.2211  0.2962 -0.1605
 1470SOL    HW1 4653   5.988   2.146   1.668  0.3406 -0.1043 -0.3520
 1470SOL    HW2 4654   5.889   2.107   1.560 -0.0813  0.4584 -0.1735
 1471SOL     OW 4655   2.544   5.511   1.822 -0.6151  0.2023  0.3178
 1471SOL    HW1 4656   2.608   5.485   1.888 -1.2798 -0.5834  0.6802
 1471SOL    HW2 4657   2.576   5.594   1.788  1.5045 -0.9799 -0.7297
 1472SOL     OW 4658   3.915   4.913   0.863 -0.1240 -0.7131  0.2987
 1472SOL    HW1 4659   3.939   4.942   0.950  0.6267 -0.2006 -0.0725
 1472SOL    HW2 4660   3.931   4.818   0.863  1.0284 -0.5230  0.3423
 1473SOL     OW 4661   3.891   6.602   3.363  0.0305  0.3368  0.2945
 1473SOL    HW1 4662   3.807   6.559   3.348  0.4855 -1.0116  1.3896
 1473SOL    HW2 4663   3.930   6.610   3.276 -0.6874 -0.1678 -0.0835
 1474SOL     OW 4664   1.894   4.938   0.547  0.1563 -0.6710 -0.3135
 1474SOL    HW1 4665   1.940   4.941   0.463 -3.0126 -2.1560 -2.3186
 1474SOL    HW2 4666   1.963   4.946   0.613  3.0322 -1.2883 -3.0052
 1475SOL     OW 4667   5.415   1.134   1.306 -0.0873 -0.2873  0.0572
 1475SOL    HW1 4668   5.499   1.168   1.275 -0.0934 -1.7427 -1.7334
 1475SOL    HW2 4669   5.362   1.212   1.324  1.5999  0.6431  1.1592
 1476SOL     OW 4670   1.796   3.568   1.417  0.3060 -0.0336  0.1628
 1476SOL    HW1 4671   1.839   3.590   1.334  2.6848 -1.4847  0.9081
 1476SOL    HW2 4672   1.708   3.604   1.409  1.2446  2.0043 -1.9878
 1477SOL     OW 4673   3.869   3.323   2.093  0.3337  0.0637  0.3024
 1477SOL    HW1 4674   3.877   3.252   2.030  2.6984  1.1988 -0.7856
 1477SOL    HW2 4675   3.822   3.284   2.167 -1.1862 -1.7245 -1.4809
 1478SOL     OW 4676   1.910   3.067   2.264 -0.0710 -0.0281  0.5987
 1478SOL    HW1 4677   1.919   3.106   2.177 -1.2486  0.3598  0.6330
 1478SOL    HW2 4678   1.827   3.101   2.297  0.1753 -0.4779  1.7202
 1479SOL     OW 4679   2.273   4.816   1.365  0.4112  0.3454 -0.2187
 1479SOL    HW1 4680   2.359   4.858   1.370 -0.0021  1.1138  0.8296
 1479SOL    HW2 4681   2.223   4.854   1.438 -0.6031 -0.5802 -0.3991
 1480SOL     OW 4682   5.693   4.124   2.988 -0.1054 -0.2852 -0.0870
 1480SOL    HW1 4683   5.620   4.161   3.037 -0.9437 -2.6525  0.5757
 1480SOL    HW2 4684   5.772   4.161   3.028 -0.8947  1.5135 -0.1506
 1481SOL     OW 4685   3.741   3.051   2.683  0.1240  0.0585 -0.3439
 1481SOL    HW1 4686   3.808   3.094   2.736  0.8618 -0.8165 -0.5358
 1481SOL    HW2 4687   3.664   3.046   2.739  0.9830 -1.1317  0.7678
 1482SOL     OW 4688   2.497   6.660   2.879 -0.6980 -0.1720  0.3138
 1482SOL    HW1 4689   2.485   6.581   2.828  1.2577  0.5929 -1.4872
 1482SOL    HW2 4690   2.474   6.635   2.969  0.1150 -2.8365 -0.1472
 1483SOL     OW 4691   4.438   1.107   1.439 -0.2991 -0.0754 -0.0248
 1483SOL    HW1 4692   4.403   1.049   1.371  0.8459 -0.9718  0.1411
 1483SOL    HW2 4693   4.456   1.189   1.393 -1.2094 -0.0760 -0.4146
 1484SOL     OW 4694   1.740   5.353   2.247  0.0600  0.0165  0.2226
 1484SOL    HW1 4695   1.742   5.382   2.338  2.7065  0.6845  0.0467
 1484SOL    HW2 4696   1.760   5.431   2.196  1.2076 -0.8316 -0.7051
 1485SOL     OW 4697   3.855   5.356   3.041 -0.0117 -0.3086 -0.3623
 1485SOL    HW1 4698   3.909   5.434   3.031  0.0051 -0.0433  1.4737
 1485SOL    HW2 4699   3.914   5.283   3.023  0.5394  0.0347  0.0255
 1486SOL     OW 4700   4.663   6.559   3.126  0.3959  0.0139 -0.3296
 1486SOL    HW1 4701   4.709   6.572   3.043  0.8229  0.9380  0.0491
 1486SOL    HW2 4702   4.710   6.487   3.168 -0.4057 -1.1204 -1.2859
 1487SOL     OW 4703   3.542   1.858   0.240  0.1424 -0.7383 -0.3489
 1487SOL    HW1 4704   3.454   1.887   0.216 -0.6619 -2.4395  0.3546
 1487SOL    HW2 4705   3.530   1.768   0.268  1.6593 -0.2058  2.3634
 1488SOL     OW 4706   5.482   4.535   2.677 -0.2531 -0.3280  0.1861
 1488SOL    HW1 4707   5.512   4.472   2.612 -0.5303 -1.7483  1.3802
 1488SOL    HW2 4708   5.555   4.597   2.685 -0.4202  0.1875 -1.8121
 1489SOL     OW 4709   1.512   1.807   1.279 -0.0327 -0.3124 -0.3492
 1489SOL    HW1 4710   1.537   1.875   1.341 -0.4049 -0.7152  0.2543
 1489SOL    HW2 4711   1.417   1.814   1.272 -0.0920 -0.8455 -0.1838
 1490SOL     OW 4712   5.071   3.784   2.670  0.0096  0.4499  0.4108
 1490SOL    HW1 4713   5.099   3.873   2.687  0.6954  0.2712  0.2329
 1490SOL    HW2 4714   5.132   3.752   2.603 -1.3655  0.4675 -0.9117
 1491SOL     OW 4715   3.701   4.582   0.674 -0.2790  0.3248 -0.9076
 1491SOL    HW1 4716   3.711   4.498   0.631  1.5437 -0.6266  1.1739
 1491SOL    HW2 4717   3.783   4.594   0.723 -1.4622  2.1567  0.7804
 1492SOL     OW 4718   0.556   3.216   0.710  0.3532  0.4162 -0.1072
 1492SOL    HW1 4719   0.571   3.291   0.767 -1.3496  0.2411  0.6168
 1492SOL    HW2 4720   0.463   3.198   0.718  0.9272 -2.6429  0.8041
 1493SOL     OW 4721   1.391   1.318   1.659 -0.0867  0.4351 -0.4701
 1493SOL    HW1 4722   1.479   1.316   1.623  0.2056  0.1291  0.2523
 1493SOL    HW2 4723   1.355   1.231   1.640  0.3703 -0.0314  0.6862
 1494SOL     OW 4724   3.725   2.684   1.744  0.6756  0.0313  0.2009
 1494SOL    HW1 4725   3.677   2.762   1.771  1.1634  0.4095 -0.0189
 1494SOL    HW2 4726   3.659   2.615   1.741 -0.4849  1.1391 -2.9063
 1495SOL     OW 4727   2.662   2.983   2.777 -0.1926 -0.4493 -0.7785
 1495SOL    HW1 4728   2.621   3.063   2.811  1.8491  0.3453 -0.0580
 1495SOL    HW2 4729   2.588   2.932   2.743 -1.4450  2.3458 -2.6876
 1496SOL     OW 4730   1.344   3.860   1.556 -0.5452  0.0851  0.1536
 1496SOL    HW1 4731   1.267   3.913   1.541 -0.1475  0.6387  0.0281
 1496SOL    HW2 4732   1.325   3.777   1.512 -1.0336  0.2429  0.0607
 1497SOL     OW 4733   2.620   6.095   2.687 -0.0797  0.1592 -0.0340
 1497SOL    HW1 4734   2.663   6.154   2.625 -0.4169  0.1165 -0.3151
 1497SOL    HW2 4735   2.585   6.024   2.632 -1.1065  0.5403  0.0988
 1498SOL     OW 4736   3.913   4.776   3.357  0.4641  0.4263 -0.1552
 1498SOL    HW1 4737   3.952   4.855   3.395  1.5752 -0.1357 -0.0869
 1498SOL    HW2 4738   3.849   4.808   3.294  1.9812  1.4148 -1.2575
 1499SOL     OW 4739   4.749   1.128   1.273 -0.2599  0.5570 -0.4400
 1499SOL    HW1 4740   4.722   1.036   1.275 -1.9358  0.9276 -2.6795
 1499SOL    HW2 4741   4.831   1.130   1.323 -1.7503 -1.5542  2.3271
 1500SOL     OW 4742   1.990   0.773   0.891 -0.7037  0.2778  0.9002
 1500SOL    HW1 4743   1.949   0.837   0.833 -0.9813 -0.1408  0.6261
 1500SOL    HW2 4744   1.923   0.750   0.955 -1.7669 -2.1178 -0.8952
 1501SOL     OW 4745   5.164   5.827   2.212 -0.8748 -0.0430  0.3379
 1501SOL    HW1 4746   5.105   5.902   2.213 -0.3979  0.4022 -1.3750
 1501SOL    HW2 4747   5.198   5.825   2.123  1.0680 -0.7876  1.0494
 1502SOL     OW 4748   2.035   2.112   2.375 -0.2567  0.4786  0.8428
 1502SOL    HW1 4749   2.056   2.090   2.284 -2.5583 -2.7595  0.9489
 1502SOL    HW2 4750   2.087   2.051   2.427 -2.9971 -1.6294  1.3586
 1503SOL     OW 4751   2.521   1.540   0.568 -0.2217  0.2419 -0.4727
 1503SOL    HW1 4752   2.583   1.581   0.507  0.7187 -0.7004 -0.1855
 1503SOL    HW2 4753   2.475   1.475   0.515  0.3438 -0.3295 -0.2745
 1504SOL     OW 4754   3.718   3.022   0.384  0.1859  0.7872 -1.1287
 1504SOL    HW1 4755   3.771   3.049   0.309 -2.0199  1.3204 -2.5797
 1504SOL    HW2 4756   3.718   2.927   0.380  1.4303  0.7472 -0.7657
 1505SOL     OW 4757   3.082   2.597   3.070 -0.1275 -0.3804 -0.1604
 1505SOL    HW1 4758   3.159   2.630   3.024  0.8269 -0.3545  1.3698
 1505SOL    HW2 4759   3.098   2.619   3.162 -1.7332 -0.8322  0.2627
 1506SOL     OW 4760   2.184   4.749   2.308  0.2902  0.5861  0.0046
 1506SOL    HW1 4761   2.118   4.681   2.302  0.9246 -0.0127 -0.3579
 1506SOL    HW2 4762   2.136   4.831   2.295 -0.2337  0.1035 -1.2559
 1507SOL     OW 4763   5.674   5.380   2.167 -0.6307  0.3968 -0.0742
 1507SOL    HW1 4764   5.581   5.387   2.188 -0.8059 -1.4167 -0.0460
 1507SOL    HW2 4765   5.718   5.393   2.251 -1.0655 -1.7486  0.5506
 1508SOL     OW 4766   4.738   6.299   2.427  0.5816 -0.0427  0.5312
 1508SOL    HW1 4767   4.815   6.348   2.456  1.3407 -1.0664  0.2941
 1508SOL    HW2 4768   4.697   6.356   2.362  2.5612 -0.4963 -1.2271
 1509SOL     OW 4769   5.842   3.927   1.492  0.0621  0.6396  0.1025
 1509SOL    HW1 4770   5.855   3.901   1.583 -1.3361  0.8378  0.3889
 1509SOL    HW2 4771   5.780   3.863   1.457 -1.3139  1.9462  0.0290
 1510SOL     OW 4772   3.923   5.648   1.325 -0.1749  0.6142 -0.2633
 1510SOL    HW1 4773   3.890   5.675   1.240  0.4234  1.8004 -0.1433
 1510SOL    HW2 4774   3.848   5.607   1.368 -0.4736 -0.0249 -1.3520
 1511SOL     OW 4775   3.068   3.132   0.987 -0.2738 -0.4158  0.1027
 1511SOL    HW1 4776   3.080   3.207   0.928 -0.0444  0.6361  1.4212
 1511SOL    HW2 4777   3.102   3.057   0.938 -0.2362  0.3857 -1.1465
 1512SOL     OW 4778   5.962   5.616   2.613  0.5277  0.4177  0.0173
 1512SOL    HW1 4779   5.916   5.634   2.694 -0.0806  1.1824 -0.4945
 1512SOL    HW2 4780   6.002   5.699   2.588 -1.2557  0.8406 -1.6915
 1513SOL     OW 4781   1.153   3.557   0.914  0.1783  0.1405  0.4219
 1513SOL    HW1 4782   1.064   3.545   0.949  0.2248  0.0864  0.5217
 1513SOL    HW2 4783   1.140   3.563   0.820  0.2001 -1.3013  0.2985
 1514SOL     OW 4784   5.486   5.230   3.335  0.1666  0.0539  0.5777
 1514SOL    HW1 4785   5.515   5.320   3.349  0.4914 -0.0984  0.9139
 1514SOL    HW2 4786   5.451   5.229   3.246 -2.1349  1.1046  1.3972
 1515SOL     OW 4787   5.467   4.568   2.190 -0.2988  0.3932 -0.2768
 1515SOL    HW1 4788   5.390   4.524   2.156 -0.0980 -0.9197  0.8536
 1515SOL    HW2 4789   5.434   4.623   2.262 -0.0928 -1.1003  1.0200
 1516SOL     OW 4790   4.914   3.514   2.081 -0.1037  0.1133 -0.5346
 1516SOL    HW1 4791   4.881   3.443   2.026 -1.0610 -0.2162  0.4302
 1516SOL    HW2 4792   4.835   3.555   2.116  0.4502  1.3765 -0.7194
 1517SOL     OW 4793   1.791   5.926   2.326  0.3619 -0.0479  0.4384
 1517SOL    HW1 4794   1.871   5.972   2.302  0.3764 -1.4340 -2.5171
 1517SOL    HW2 4795   1.763   5.970   2.407  2.5897  2.2777  0.1094
 1518SOL     OW 4796   1.809   4.087   1.470 -0.2283 -0.2468  0.1273
 1518SOL    HW1 4797   1.811   4.018   1.403 -1.0078 -0.7148  0.5699
 1518SOL    HW2 4798   1.716   4.095   1.492 -0.0952  0.6764  0.3684
 1519SOL     OW 4799   6.948   6.511   3.233  0.9915 -0.5387 -0.6288
 1519SOL    HW1 4800   6.949   6.426   3.277  3.7250 -0.4745 -0.4066
 1519SOL    HW2 4801   6.956   6.575   3.303 -1.1353 -0.0143 -0.7904
 1520SOL     OW 4802   2.424   4.801   2.411 -0.1524 -0.5023  0.2206
 1520SOL    HW1 4803   2.351   4.770   2.358  0.5179 -1.2220 -0.3085
 1520SOL    HW2 4804   2.417   4.896   2.409 -0.3292 -0.5278 -0.8976
 1521SOL     OW 4805   4.279   4.130   2.045  0.3497  0.4403 -0.2181
 1521SOL    HW1 4806   4.213   4.069   2.079  0.9842  0.6520  1.4499
 1521SOL    HW2 4807   4.347   4.073   2.007 -0.2951  0.2039 -1.0559
 1522SOL     OW 4808   2.568   2.557   1.215  0.3033  0.3822 -0.7673
 1522SOL    HW1 4809   2.547   2.650   1.210 -0.7926  0.3987  2.2249
 1522SOL    HW2 4810   2.497   2.519   1.267  1.6025 -1.8204 -0.4730
 1523SOL     OW 4811   2.346   4.646   0.485  0.5399  0.1321  0.7070
 1523SOL    HW1 4812   2.340   4.551   0.488  0.1317  0.1569  3.5838
 1523SOL    HW2 4813   2.437   4.663   0.460  0.6285 -0.9878  0.1954
 1524SOL     OW 4814   4.395   1.290   0.270  0.5562  0.3105  0.1756
 1524SOL    HW1 4815   4.326   1.230   0.241  1.0226 -0.0191 -0.2732
 1524SOL    HW2 4816   4.403   1.273   0.364 -1.9169  2.3554  0.8745
 1525SOL     OW 4817   5.407   1.811   2.541 -0.0620  0.0445 -0.4435
 1525SOL    HW1 4818   5.368   1.853   2.464 -2.5184 -0.9996  0.1371
 1525SOL    HW2 4819   5.361   1.850   2.615 -0.7422 -1.9493  0.2302
 1526SOL     OW 4820   4.762   3.230   0.664  0.1388  0.3029  0.2010
 1526SOL    HW1 4821   4.712   3.289   0.722  0.5975  0.2560  0.6528
 1526SOL    HW2 4822   4.707   3.222   0.586  1.3909  3.8211 -1.2432
 1527SOL     OW 4823   6.190   6.581   2.961  0.1232  0.1065  0.4206
 1527SOL    HW1 4824   6.137   6.573   2.882  1.3939  0.2600 -0.4804
 1527SOL    HW2 4825   6.138   6.539   3.030 -0.9700 -0.0921 -0.5052
 1528SOL     OW 4826   4.252   2.579   0.019 -0.6765 -0.4709  0.7309
 1528SOL    HW1 4827   4.181   2.633  -0.015  2.6561  3.9158 -0.1462
 1528SOL    HW2 4828   4.251   2.594   0.114 -1.0878 -0.6811  0.7605
 1529SOL     OW 4829   5.061   3.262   0.713  0.0058  0.0997 -0.3740
 1529SOL    HW1 4830   4.973   3.225   0.720 -0.2832  0.7593 -0.5143
 1529SOL    HW2 4831   5.062   3.333   0.776  0.1116  0.7300 -1.0764
 1530SOL     OW 4832   4.464   1.381   1.352  0.5381  0.5929 -0.3708
 1530SOL    HW1 4833   4.465   1.391   1.257  1.1723 -0.3036 -0.4709
 1530SOL    HW2 4834   4.542   1.428   1.382  0.7776  0.2008 -0.3734
 1531SOL     OW 4835   1.490   3.485   1.644 -0.1026 -0.2495 -0.1855
 1531SOL    HW1 4836   1.517   3.405   1.598 -0.6275  0.1035 -1.1355
 1531SOL    HW2 4837   1.394   3.480   1.646 -0.1079  0.0287  0.3633
 1532SOL     OW 4838   2.233   1.920   0.077  0.3322  0.4664 -0.4055
 1532SOL    HW1 4839   2.173   1.850   0.099 -0.2583  1.0392 -0.1653
 1532SOL    HW2 4840   2.289   1.884   0.009 -0.4899  0.0296 -0.8582
 1533SOL     OW 4841   3.635   3.872   2.135  0.1809  0.0577  0.0983
 1533SOL    HW1 4842   3.670   3.845   2.050 -3.1744  1.3028 -1.8844
 1533SOL    HW2 4843   3.633   3.967   2.131 -2.0050  0.0831  0.5926
 1534SOL     OW 4844   4.663   1.090   0.308  0.0501  0.2781  0.4773
 1534SOL    HW1 4845   4.573   1.062   0.293  0.1801  0.4984 -0.8530
 1534SOL    HW2 4846   4.655   1.178   0.345 -0.3011  1.1623 -1.5634
 1535SOL     OW 4847   1.216   2.629   0.766  0.6236  0.2965  0.2057
 1535SOL    HW1 4848   1.242   2.549   0.812 -1.4873 -0.7905 -0.3859
 1535SOL    HW2 4849   1.160   2.676   0.827 -0.1745  0.0737 -0.3440
 1536SOL     OW 4850   5.680   6.789   2.831  0.9380  0.2787  0.1224
 1536SOL    HW1 4851   5.707   6.724   2.896  1.0719  0.3784  0.1647
 1536SOL    HW2 4852   5.746   6.858   2.836 -1.6575  2.8815  3.5755
 1537SOL     OW 4853   5.968   5.226   2.598  0.2020 -0.2464  0.0264
 1537SOL    HW1 4854   5.969   5.285   2.673  1.3665 -0.5126  0.2379
 1537SOL    HW2 4855   6.049   5.176   2.605  0.4588 -0.1189 -1.5401
 1538SOL     OW 4856   4.267   4.630   3.002  0.1592  0.1121 -0.0831
 1538SOL    HW1 4857   4.282   4.548   3.049 -2.8431  0.3013  1.4870
 1538SOL    HW2 4858   4.239   4.604   2.914  1.1603 -0.4429 -0.2439
 1539SOL     OW 4859   6.145   1.923   2.224 -0.0902  0.3715 -0.2407
 1539SOL    HW1 4860   6.093   1.845   2.246 -0.5399  0.0525 -2.2406
 1539SOL    HW2 4861   6.223   1.916   2.279 -0.3645 -1.2196  0.0079
 1540SOL     OW 4862   6.070   6.378   2.729  0.5744 -0.0985 -0.1097
 1540SOL    HW1 4863   6.159   6.390   2.695 -0.1905 -0.2239 -2.3157
 1540SOL    HW2 4864   6.024   6.458   2.703 -0.3379 -0.6812 -0.3358
 1541SOL     OW 4865   4.034   5.361   1.107 -0.6160 -0.2936  0.1557
 1541SOL    HW1 4866   4.121   5.379   1.070 -0.3532  0.3996  1.0841
 1541SOL    HW2 4867   4.040   5.390   1.198 -1.4326 -1.4439  0.5944
 1542SOL     OW 4868   4.991   4.594   0.742  0.7362 -0.1879  0.6515
 1542SOL    HW1 4869   4.920   4.551   0.788  1.2616 -0.6279  1.0636
 1542SOL    HW2 4870   4.948   4.647   0.675  0.0459 -0.7733  0.6254
 1543SOL     OW 4871   2.257   1.781   0.454  0.4858  0.0730 -0.1325
 1543SOL    HW1 4872   2.296   1.811   0.536 -0.0170 -0.0515  0.1585
 1543SOL    HW2 4873   2.222   1.695   0.474  0.3738  0.0355 -0.4840
 1544SOL     OW 4874   4.046   2.084   2.263 -0.7987 -0.2368 -0.1254
 1544SOL    HW1 4875   4.072   1.997   2.295 -0.9145 -1.0904 -2.1701
 1544SOL    HW2 4876   3.999   2.123   2.337  0.6034 -1.2606  1.3973
 1545SOL     OW 4877   4.241   5.408   1.640 -0.3487  0.1263 -0.1037
 1545SOL    HW1 4878   4.197   5.344   1.584 -1.5910  1.6078 -0.9033
 1545SOL    HW2 4879   4.332   5.378   1.644 -0.8299 -1.5271 -0.6529
 1546SOL     OW 4880   1.676   2.057   0.650 -0.2027  0.2921 -0.4009
 1546SOL    HW1 4881   1.672   2.082   0.558  0.4395 -2.0086 -1.1349
 1546SOL    HW2 4882   1.769   2.040   0.666 -0.5179 -1.0802  0.1170
 1547SOL     OW 4883   1.824   1.735   2.299 -0.4948  0.6341 -0.1873
 1547SOL    HW1 4884   1.772   1.656   2.288 -0.6335  0.9505 -2.4359
 1547SOL    HW2 4885   1.906   1.716   2.253  0.8369  0.6721  2.0325
 1548SOL     OW 4886   3.508   5.869   2.325  0.2822 -0.4552 -0.2594
 1548SOL    HW1 4887   3.533   5.791   2.373  0.7037  1.1144  2.2011
 1548SOL    HW2 4888   3.573   5.935   2.348 -2.2728  1.8023  1.0624
 1549SOL     OW 4889   1.240   3.133   1.404  0.6593 -0.6453  0.2777
 1549SOL    HW1 4890   1.243   3.178   1.320  2.6167 -0.4222  0.4100
 1549SOL    HW2 4891   1.154   3.155   1.440 -0.0123 -0.3315 -1.4243
 1550SOL     OW 4892   5.805   3.530   2.036  0.4909  0.0102 -0.0933
 1550SOL    HW1 4893   5.715   3.528   2.066  0.0777 -0.3327 -1.2950
 1550SOL    HW2 4894   5.800   3.514   1.942  1.9082 -1.6734  0.0508
 1551SOL     OW 4895   2.057   1.994   2.130 -0.1999  0.0659 -0.6516
 1551SOL    HW1 4896   2.031   1.930   2.063 -0.7984 -0.6096  0.2068
 1551SOL    HW2 4897   2.129   1.951   2.176 -0.8387 -0.1545  0.1584
 1552SOL     OW 4898   6.187   1.620   2.240 -0.3486  0.3531  0.4538
 1552SOL    HW1 4899   6.149   1.551   2.186 -0.7596  0.7488  0.2299
 1552SOL    HW2 4900   6.130   1.624   2.317 -0.4714  0.6141  0.3488
 1553SOL     OW 4901   2.028   2.653   0.752 -0.3505  0.6586 -0.2032
 1553SOL    HW1 4902   1.965   2.581   0.758 -0.6499  0.7709 -1.7065
 1553SOL    HW2 4903   2.113   2.611   0.756 -0.5247  0.2195 -1.0307
 1554SOL     OW 4904   4.589   4.418   0.768  0.2702 -0.2089  0.7394
 1554SOL    HW1 4905   4.516   4.476   0.746  0.5980 -0.4921 -1.2987
 1554SOL    HW2 4906   4.547   4.337   0.796 -0.2500 -0.4230 -0.5734
 1555SOL     OW 4907   1.645   2.020   1.436  0.3032  0.3345  0.2376
 1555SOL    HW1 4908   1.574   2.067   1.392  0.7314  0.1501 -0.6761
 1555SOL    HW2 4909   1.720   2.079   1.429  0.4909  0.1057  0.3348
 1556SOL     OW 4910   4.572   3.683   1.162  0.6260  0.1390 -0.2419
 1556SOL    HW1 4911   4.662   3.675   1.194  0.0046 -0.0713  1.5463
 1556SOL    HW2 4912   4.530   3.742   1.224 -0.4211  0.4783 -1.2348
 1557SOL     OW 4913   4.622   5.911   3.093 -0.3170  0.3652  0.6683
 1557SOL    HW1 4914   4.636   5.818   3.113 -1.1012  0.1715  0.3382
 1557SOL    HW2 4915   4.639   5.918   2.999 -3.1928 -0.0877 -0.0011
 1558SOL     OW 4916   5.146   4.911   1.736  0.4071 -0.1821  0.5988
 1558SOL    HW1 4917   5.235   4.876   1.724  0.2216 -0.5123  0.1317
 1558SOL    HW2 4918   5.158   5.005   1.745  0.7744 -0.1799  0.1293
 1559SOL     OW 4919   0.996   2.448   1.192 -0.2840 -0.1368  0.4474
 1559SOL    HW1 4920   1.085   2.483   1.187  0.7819 -2.6644  0.3577
 1559SOL    HW2 4921   1.002   2.361   1.152 -2.1138 -1.6272  3.1025
 1560SOL     OW 4922   3.432   5.555   1.935  0.4304  0.1398 -0.6671
 1560SOL    HW1 4923   3.385   5.519   2.010 -1.4406  0.5211 -1.5981
 1560SOL    HW2 4924   3.464   5.479   1.887  1.2975 -0.1114  0.2781
 1561SOL     OW 4925   2.739   1.541   1.039 -0.6364  0.5805  0.0101
 1561SOL    HW1 4926   2.766   1.464   1.089  0.2838  0.2380 -0.9628
 1561SOL    HW2 4927   2.645   1.528   1.023 -0.3692 -0.6958 -0.6982
 1562SOL     OW 4928   2.467   3.627   0.379 -0.2017 -0.1917 -0.4911
 1562SOL    HW1 4929   2.520   3.586   0.311  0.1255  0.2675 -0.5184
 1562SOL    HW2 4930   2.447   3.714   0.345 -1.3634 -0.5098 -0.6811
 1563SOL     OW 4931   0.765   0.852   0.265  0.7292  0.5402  0.1019
 1563SOL    HW1 4932   0.811   0.782   0.219 -0.2488 -0.1454  0.1516
 1563SOL    HW2 4933   0.829   0.883   0.330  0.1153 -2.6033  2.4529
 1564SOL     OW 4934   2.665   3.800   1.721  0.2464 -0.8900  0.1843
 1564SOL    HW1 4935   2.741   3.785   1.777  0.6030  0.6772  0.1591
 1564SOL    HW2 4936   2.603   3.731   1.745  1.0819 -1.2812  1.2614
 1565SOL     OW 4937   3.602   6.799   3.297  0.2742 -0.3957  0.5216
 1565SOL    HW1 4938   3.518   6.788   3.253  0.6586 -1.3662 -0.0028
 1565SOL    HW2 4939   3.623   6.712   3.331  1.1751 -0.2196  0.4494
 1566SOL     OW 4940   2.666   1.156   0.253  0.2563 -0.2233 -0.3097
 1566SOL    HW1 4941   2.644   1.075   0.299  1.2120 -0.0850  0.4219
 1566SOL    HW2 4942   2.725   1.203   0.313  2.4699 -0.5440 -2.0807
 1567SOL     OW 4943   2.148   0.047   0.053  0.0599 -1.0134  0.2672
 1567SOL    HW1 4944   2.145   0.073  -0.039  0.2869 -0.8331  0.3108
 1567SOL    HW2 4945   2.181  -0.043   0.051  2.0980 -0.3238  0.2927
 1568SOL     OW 4946   4.588   4.842   0.470  0.1858 -0.2482  0.3863
 1568SOL    HW1 4947   4.512   4.790   0.444  1.2601 -2.5617  1.5656
 1568SOL    HW2 4948   4.560   4.933   0.459 -2.3896 -1.0293 -0.1558
 1569SOL     OW 4949   3.497   3.025   2.854  0.1802  0.1497 -0.1963
 1569SOL    HW1 4950   3.431   3.018   2.785 -0.6267  1.7211  0.3707
 1569SOL    HW2 4951   3.451   3.067   2.927  1.6067  0.6041  0.4757
 1570SOL     OW 4952   5.773   5.496   3.075 -0.0026  0.0396  0.7309
 1570SOL    HW1 4953   5.704   5.456   3.022  0.8045  2.2905 -2.2640
 1570SOL    HW2 4954   5.820   5.422   3.113 -1.4674 -1.6736 -0.6236
 1571SOL     OW 4955   1.049   3.953   0.040  0.3230 -0.0879 -0.0144
 1571SOL    HW1 4956   1.104   3.905   0.102  0.6014 -2.0852 -1.6864
 1571SOL    HW2 4957   0.979   3.891   0.018  0.1738  0.6011 -1.5788
 1572SOL     OW 4958   1.499   1.708   0.836  0.1262  0.0106  0.2539
 1572SOL    HW1 4959   1.410   1.673   0.840 -0.2001  0.6644 -1.0190
 1572SOL    HW2 4960   1.508   1.741   0.747  0.0953  4.0287  1.5698
 1573SOL     OW 4961   3.078   4.640   0.034  0.8159 -0.3609  0.0863
 1573SOL    HW1 4962   3.126   4.562   0.060  0.1281 -1.0626 -0.6611
 1573SOL    HW2 4963   3.140   4.712   0.045  1.3549 -0.9581  1.1044
 1574SOL     OW 4964   1.372   2.653   1.966  0.1479 -0.0511 -0.0563
 1574SOL    HW1 4965   1.433   2.725   1.982 -0.7024  0.5864  0.3971
 1574SOL    HW2 4966   1.426   2.574   1.975  0.7289  0.4588  1.3143
 1575SOL     OW 4967   4.619   6.810   3.202  0.2664 -0.1651 -0.7321
 1575SOL    HW1 4968   4.633   6.720   3.174  1.1709  0.4693 -2.4442
 1575SOL    HW2 4969   4.705   6.852   3.193  0.0582  0.6870  0.8252
 1576SOL     OW 4970   5.529   6.016   2.907  0.0663 -0.4765 -0.3647
 1576SOL    HW1 4971   5.516   6.007   3.001 -2.0863 -1.4485 -0.7005
 1576SOL    HW2 4972   5.441   6.023   2.870  0.8857  2.0571 -2.1600
 1577SOL     OW 4973   6.285   5.217   2.471  0.7579 -0.2445  0.3889
 1577SOL    HW1 4974   6.248   5.305   2.462  1.8302  0.0237 -2.3981
 1577SOL    HW2 4975   6.375   5.232   2.502  1.0291 -0.2929 -0.3405
 1578SOL     OW 4976   2.950   5.313   0.894  0.2669  0.0471 -0.1136
 1578SOL    HW1 4977   2.897   5.383   0.931  0.5017  0.4694 -0.5642
 1578SOL    HW2 4978   2.886   5.253   0.854  0.1461  0.8320 -1.1306
 1579SOL     OW 4979   4.340   5.978   3.067  0.1659 -0.0734 -0.6026
 1579SOL    HW1 4980   4.432   5.954   3.079 -0.0327 -1.0273 -0.9312
 1579SOL    HW2 4981   4.293   5.926   3.132 -0.3057 -0.8356 -1.5373
 1580SOL     OW 4982   5.663   2.385   2.065 -0.2290 -0.1415 -0.9429
 1580SOL    HW1 4983   5.747   2.398   2.020 -0.2884  1.5880 -0.6278
 1580SOL    HW2 4984   5.598   2.387   1.995  0.0024 -2.2494 -1.2800
 1581SOL     OW 4985   3.933   4.567   1.880 -0.3106  0.1477 -0.1612
 1581SOL    HW1 4986   3.968   4.601   1.798  0.0840  0.3002  0.0656
 1581SOL    HW2 4987   4.009   4.563   1.939 -0.2376 -1.5728 -0.3201
 1582SOL     OW 4988   6.576   4.149   2.996  0.5428 -0.0870  0.4355
 1582SOL    HW1 4989   6.549   4.231   3.038 -0.3260 -1.0506  1.8438
 1582SOL    HW2 4990   6.541   4.155   2.907  1.9634  1.7768 -0.0615
 1583SOL     OW 4991   4.651   2.156   0.860 -0.1589  0.0450 -0.1606
 1583SOL    HW1 4992   4.577   2.171   0.919  1.2474  2.0304  1.2370
 1583SOL    HW2 4993   4.612   2.154   0.773 -1.9396  0.2377  0.5829
 1584SOL     OW 4994   4.708   2.399   1.697  0.3929  0.2222 -0.3158
 1584SOL    HW1 4995   4.740   2.310   1.686 -0.5184 -0.3269  1.1634
 1584SOL    HW2 4996   4.683   2.427   1.609 -0.6655 -1.5311 -0.6164
 1585SOL     OW 4997   5.439   6.672   2.963  0.3981 -0.2164 -0.3172
 1585SOL    HW1 4998   5.468   6.733   3.031 -2.2856  0.9852 -0.1385
 1585SOL    HW2 4999   5.505   6.679   2.895  1.8272  0.4563  1.0775
 1586SOL     OW 5000   6.668   6.324   3.069  0.2111 -0.6548 -0.1576
 1586SOL    HW1 5001   6.579   6.332   3.034  0.7846 -1.5102 -1.9289
 1586SOL    HW2 5002   6.659   6.263   3.143 -0.8261  0.1706  0.4308
 1587SOL     OW 5003   5.673   4.457   3.298  0.4709 -0.2354 -0.0954
 1587SOL    HW1 5004   5.582   4.470   3.325  0.3241 -1.0464 -0.1753
 1587SOL    HW2 5005   5.724   4.507   3.362 -0.0431  0.4773 -0.2334
 1588SOL     OW 5006   3.718   4.699   1.957 -0.4904 -0.3148  0.3210
 1588SOL    HW1 5007   3.800   4.660   1.929  0.2504  0.7340  0.9421
 1588SOL    HW2 5008   3.735   4.729   2.047 -1.4407  0.2004  0.3477
 1589SOL     OW 5009   5.224   4.330   0.812 -0.6869  0.2994 -0.3452
 1589SOL    HW1 5010   5.299   4.335   0.871 -0.2762 -0.0650 -0.8279
 1589SOL    HW2 5011   5.200   4.422   0.797  0.7349  0.5177 -1.5138
 1590SOL     OW 5012   0.661   0.320   0.373  0.3084  0.2208  0.2978
 1590SOL    HW1 5013   0.661   0.225   0.384 -0.9183  0.2253  0.4124
 1590SOL    HW2 5014   0.749   0.340   0.341  0.6054 -0.9403  0.3472
 1591SOL     OW 5015   3.162   1.532   1.123 -0.7760 -0.3748  0.2290
 1591SOL    HW1 5016   3.198   1.469   1.186  0.6534  0.6554  0.5065
 1591SOL    HW2 5017   3.144   1.481   1.045 -0.5520 -1.3017  0.7695
 1592SOL     OW 5018   1.971   5.528   1.992 -0.6245 -0.0073 -0.9321
 1592SOL    HW1 5019   2.040   5.478   1.948 -0.8933 -0.1989 -1.1445
 1592SOL    HW2 5020   1.975   5.499   2.083 -0.7179 -0.3536 -1.0360
 1593SOL     OW 5021   1.930   2.097   0.191  0.0700  0.0994  0.1201
 1593SOL    HW1 5022   1.858   2.147   0.152 -1.0983 -0.4708  1.5027
 1593SOL    HW2 5023   1.925   2.011   0.149  0.3718  0.2616 -0.2580
 1594SOL     OW 5024   6.000   5.039   2.029 -0.3760 -0.3195  0.0077
 1594SOL    HW1 5025   5.927   5.101   2.037  0.0124  0.4595 -2.0095
 1594SOL    HW2 5026   6.062   5.066   2.096 -1.5715 -0.5017  1.2346
 1595SOL     OW 5027   2.822   3.039   2.574  0.3119  0.1184 -0.4849
 1595SOL    HW1 5028   2.856   2.959   2.534 -0.7412  0.0367 -1.2529
 1595SOL    HW2 5029   2.757   3.008   2.638  0.4358  0.3296 -0.2553
 1596SOL     OW 5030   4.353   4.480   1.161  0.0959 -0.2164 -0.1833
 1596SOL    HW1 5031   4.399   4.413   1.211 -0.4936 -1.4898 -1.2879
 1596SOL    HW2 5032   4.391   4.562   1.190  2.7430 -1.1732 -0.7042
 1597SOL     OW 5033   1.451   0.780   0.310 -0.1164 -0.4888  0.3530
 1597SOL    HW1 5034   1.515   0.763   0.379 -0.2296  0.2384  0.6453
 1597SOL    HW2 5035   1.439   0.696   0.267  2.9893 -0.1521 -1.4209
 1598SOL     OW 5036   5.453   4.863   1.579  0.3899  0.2774 -0.0691
 1598SOL    HW1 5037   5.430   4.956   1.572  0.1496  0.2326  0.1169
 1598SOL    HW2 5038   5.540   4.857   1.540  0.2606  0.5234 -0.4044
 1599SOL     OW 5039   5.533   2.676   3.261 -0.0168 -0.5932  0.4152
 1599SOL    HW1 5040   5.625   2.657   3.245 -0.1309 -0.1652 -0.9170
 1599SOL    HW2 5041   5.526   2.771   3.250 -0.5275 -0.5633  0.9622
 1600SOL     OW 5042   4.892   6.029   2.620  0.7510 -0.6172 -0.1205
 1600SOL    HW1 5043   4.910   6.123   2.628 -0.6211 -0.3742  0.2821
 1600SOL    HW2 5044   4.975   5.992   2.590  1.2513  0.7483 -0.5029
 1601SOL     OW 5045   1.007   3.548   0.163 -0.0072  0.6043  0.1709
 1601SOL    HW1 5046   1.064   3.595   0.225  1.6369  0.9416 -1.4996
 1601SOL    HW2 5047   1.020   3.594   0.080  0.5449 -1.8723 -1.2020
 1602SOL     OW 5048   4.375   1.845   0.257  0.3065  0.0808 -0.2426
 1602SOL    HW1 5049   4.385   1.850   0.352 -1.4296 -2.1869  0.1405
 1602SOL    HW2 5050   4.446   1.899   0.223  0.5246  1.6140  2.3281
 1603SOL     OW 5051   1.947   1.355   0.470 -0.1652  0.2353  0.1431
 1603SOL    HW1 5052   1.936   1.325   0.380  1.1108  0.1719 -0.0029
 1603SOL    HW2 5053   1.858   1.356   0.505 -0.6011 -0.4554 -0.8839
 1604SOL     OW 5054   4.502   4.458   0.357 -0.1792  0.0058  0.3623
 1604SOL    HW1 5055   4.477   4.368   0.336 -1.6362  0.6707 -0.9172
 1604SOL    HW2 5056   4.594   4.451   0.382  0.2654 -1.6217 -1.4175
 1605SOL     OW 5057   2.713   1.632   0.335  0.3327  0.3432 -0.1060
 1605SOL    HW1 5058   2.675   1.582   0.262 -0.9837 -0.3010  0.9647
 1605SOL    HW2 5059   2.687   1.722   0.318 -1.0431  0.0243  0.1772
 1606SOL     OW 5060   3.426   2.399   0.812 -0.3568  0.1425  0.0100
 1606SOL    HW1 5061   3.508   2.424   0.856 -1.2710  3.6261  0.0883
 1606SOL    HW2 5062   3.454   2.356   0.732  1.6712  2.0839 -0.4501
 1607SOL     OW 5063   4.992   2.480   2.555  0.2922 -0.1130  0.0457
 1607SOL    HW1 5064   4.952   2.481   2.468 -2.1545  1.2255  1.0957
 1607SOL    HW2 5065   4.934   2.424   2.607  0.7675  0.4807  1.2382
 1608SOL     OW 5066   3.675   6.061   2.376 -0.2333  0.3413  0.3723
 1608SOL    HW1 5067   3.666   6.042   2.469 -0.1226  0.4847  0.4132
 1608SOL    HW2 5068   3.769   6.071   2.363 -0.2902  0.8795  0.3589
 1609SOL     OW 5069   1.792   3.905   1.255 -0.1541 -0.0136 -0.2756
 1609SOL    HW1 5070   1.818   3.951   1.175  3.0128  1.5086  1.4418
 1609SOL    HW2 5071   1.799   3.812   1.233 -0.2275  0.3473 -1.9863
 1610SOL     OW 5072   4.650   3.949   2.179 -0.2070 -0.2679  0.1412
 1610SOL    HW1 5073   4.722   3.995   2.222  0.6769 -0.3255 -1.2184
 1610SOL    HW2 5074   4.598   3.913   2.251  0.3133  0.9805  1.1743
 1611SOL     OW 5075   1.545   1.967   0.910  0.5573  0.0082  0.0164
 1611SOL    HW1 5076   1.527   1.874   0.895 -0.2582  0.0362  0.7577
 1611SOL    HW2 5077   1.622   1.986   0.856  0.0526 -0.8175 -1.0154
 1612SOL     OW 5078   5.042   3.141   1.783 -0.1733  0.6671 -0.1649
 1612SOL    HW1 5079   5.083   3.225   1.803  1.8696 -0.8403  2.6778
 1612SOL    HW2 5080   5.112   3.086   1.749 -0.5249 -0.9175  1.4401
 1613SOL     OW 5081   2.627   2.546  -0.006  0.3445 -0.0176 -0.5412
 1613SOL    HW1 5082   2.707   2.580   0.034 -0.2371  0.0969  0.5746
 1613SOL    HW2 5083   2.557   2.573   0.055 -0.2657 -2.2830 -0.1738
 1614SOL     OW 5084   1.651   3.155   0.148  0.5733 -0.0379 -0.0246
 1614SOL    HW1 5085   1.608   3.240   0.140  1.2396  0.3571  0.4898
 1614SOL    HW2 5086   1.597   3.107   0.212 -0.6535 -0.5739 -1.3926
 1615SOL     OW 5087   4.277   3.119   1.558 -0.1970  0.7297  0.8641
 1615SOL    HW1 5088   4.252   3.208   1.586 -2.0347 -0.1377  2.1971
 1615SOL    HW2 5089   4.194   3.073   1.550  0.7774 -1.1755  1.2640
 1616SOL     OW 5090   1.123   4.590   1.504 -0.4377  0.2457 -0.0865
 1616SOL    HW1 5091   1.059   4.633   1.448 -0.5218  0.2329  0.0005
 1616SOL    HW2 5092   1.204   4.640   1.490  0.0093 -0.8350 -1.5675
 1617SOL     OW 5093   6.146   5.891   3.005  0.4521 -0.1830  0.1733
 1617SOL    HW1 5094   6.132   5.878   2.911 -1.7770  0.6041  0.3303
 1617SOL    HW2 5095   6.201   5.817   3.032  0.0778 -1.1233 -1.5114
 1618SOL     OW 5096   1.447   3.917   0.493 -0.4610 -0.0485 -0.3217
 1618SOL    HW1 5097   1.413   3.836   0.531  0.9992 -0.1260  0.8754
 1618SOL    HW2 5098   1.497   3.889   0.417  0.2129 -0.3034  0.2095
 1619SOL     OW 5099   5.767   6.429   3.321  0.2605 -0.1593 -0.3121
 1619SOL    HW1 5100   5.730   6.483   3.391  0.3936  0.0222 -0.3813
 1619SOL    HW2 5101   5.705   6.357   3.311  0.2206 -0.1654 -0.0317
 1620SOL     OW 5102   1.974   0.552   0.372 -0.1668 -0.0278 -0.7617
 1620SOL    HW1 5103   2.003   0.496   0.444  1.2463 -0.5001 -1.6762
 1620SOL    HW2 5104   2.054   0.584   0.332 -0.9393  1.3635 -1.2893
 1621SOL     OW 5105   2.819   4.138   3.111  0.2335  0.4853  0.0626
 1621SOL    HW1 5106   2.727   4.162   3.098  0.1465  0.5249  0.7231
 1621SOL    HW2 5107   2.838   4.076   3.041 -0.6931 -0.5907  0.7359
 1622SOL     OW 5108   3.434   2.545   0.374  0.2685 -0.3843  0.5739
 1622SOL    HW1 5109   3.516   2.505   0.345  0.0349 -0.8175  0.4926
 1622SOL    HW2 5110   3.368   2.510   0.313 -0.2861 -1.5435  1.7987
 1623SOL     OW 5111   3.863   3.369   0.145  0.0473  0.3393 -0.1650
 1623SOL    HW1 5112   3.898   3.281   0.158  0.6311  0.3467 -1.5474
 1623SOL    HW2 5113   3.866   3.409   0.232 -1.4791 -1.4171  0.7655
 1624SOL     OW 5114   2.878   2.316   0.275  0.4352  0.0790 -0.4117
 1624SOL    HW1 5115   2.870   2.410   0.264 -0.2031 -0.1260 -1.9252
 1624SOL    HW2 5116   2.821   2.278   0.209  1.2737 -1.3805 -0.3620
 1625SOL     OW 5117   5.209   5.411   1.243  0.8750 -0.1313  0.6549
 1625SOL    HW1 5118   5.199   5.505   1.227 -3.9294 -0.0786  2.3053
 1625SOL    HW2 5119   5.203   5.402   1.338 -1.3022 -2.1658  0.4225
 1626SOL     OW 5120   3.590   1.569   0.237  0.2514  0.5166 -0.3281
 1626SOL    HW1 5121   3.658   1.528   0.183 -1.0010  0.0864 -1.6444
 1626SOL    HW2 5122   3.619   1.554   0.327  1.2953 -0.7038 -0.8346
 1627SOL     OW 5123   0.660   4.668   0.248  0.2101 -0.4675  0.3117
 1627SOL    HW1 5124   0.633   4.592   0.196  1.7702 -0.5015 -0.5265
 1627SOL    HW2 5125   0.579   4.715   0.265 -0.4071 -0.4311 -2.2480
 1628SOL     OW 5126   1.803   4.608   2.164  0.2152 -0.1820 -0.1627
 1628SOL    HW1 5127   1.710   4.594   2.182  0.7480 -1.6787  1.7255
 1628SOL    HW2 5128   1.835   4.656   2.241  1.3068 -1.0175 -0.0861
 1629SOL     OW 5129   5.182   1.234   0.597 -0.8738 -1.3554  0.2339
 1629SOL    HW1 5130   5.141   1.320   0.603  1.5195 -0.1659  0.5194
 1629SOL    HW2 5131   5.144   1.195   0.518 -1.3535  0.3257 -0.4108
 1630SOL     OW 5132   1.463   5.090   0.461 -0.1048 -0.7922 -0.2239
 1630SOL    HW1 5133   1.538   5.114   0.515  0.4366  0.5861 -1.5359
 1630SOL    HW2 5134   1.500   5.042   0.388 -0.2974  0.9628 -1.5329
 1631SOL     OW 5135   1.521   5.277   0.724  0.0070 -0.0810  0.1226
 1631SOL    HW1 5136   1.560   5.268   0.811  0.7883  1.8013  0.0242
 1631SOL    HW2 5137   1.585   5.237   0.664  0.0330 -0.3195  0.3104
 1632SOL     OW 5138   5.955   3.174   3.234 -0.2726 -0.6522 -0.4252
 1632SOL    HW1 5139   5.860   3.176   3.222 -0.5580 -1.4971  1.3502
 1632SOL    HW2 5140   5.977   3.259   3.273 -0.9435 -1.7892  2.7644
 1633SOL     OW 5141   3.782   3.448   1.147 -0.2439  0.1928 -0.4015
 1633SOL    HW1 5142   3.710   3.436   1.086  1.1515 -1.4829 -1.8555
 1633SOL    HW2 5143   3.838   3.515   1.106  0.4274 -0.5488 -0.7194
 1634SOL     OW 5144   3.154   2.313   1.735 -0.2341 -0.7522  0.2662
 1634SOL    HW1 5145   3.125   2.339   1.822 -1.2219 -0.4197 -0.1439
 1634SOL    HW2 5146   3.248   2.331   1.734 -0.6130  1.5398  0.4843
 1635SOL     OW 5147   5.189   2.367   0.994 -0.1980 -0.8718  0.1681
 1635SOL    HW1 5148   5.228   2.436   1.048 -0.3593 -0.9969  0.4407
 1635SOL    HW2 5149   5.135   2.415   0.931  0.9038 -0.6482 -0.6445
 1636SOL     OW 5150   1.867   0.527   0.764 -0.7632 -0.0323  0.2079
 1636SOL    HW1 5151   1.893   0.615   0.735  0.7354 -0.0963  1.2241
 1636SOL    HW2 5152   1.833   0.541   0.852  0.0685 -0.5309  0.6213
 1637SOL     OW 5153   4.346   4.308   2.920  0.1221 -0.4325  0.4337
 1637SOL    HW1 5154   4.265   4.339   2.879  0.3126  1.3479  1.3102
 1637SOL    HW2 5155   4.316   4.254   2.993 -0.2175 -2.2276 -0.9587
 1638SOL     OW 5156   2.381   3.499   0.590 -0.5347  0.0487  0.0942
 1638SOL    HW1 5157   2.362   3.417   0.545  0.2299  0.7073 -1.4904
 1638SOL    HW2 5158   2.422   3.554   0.524  0.3635  1.1822  1.5250
 1639SOL     OW 5159   4.200   4.895   2.769 -0.0171  0.0061 -0.2658
 1639SOL    HW1 5160   4.189   4.800   2.763  2.4138 -0.6567  2.8072
 1639SOL    HW2 5161   4.119   4.927   2.808  0.4754 -1.4647  2.1721
 1640SOL     OW 5162   2.226   2.890   0.282  0.2843  0.5707  0.1113
 1640SOL    HW1 5163   2.247   2.840   0.361 -1.2517  0.7013  0.6198
 1640SOL    HW2 5164   2.131   2.902   0.285  0.2276  0.8047 -1.6244
 1641SOL     OW 5165   2.287   6.136   3.085 -0.2742  0.1248 -0.7504
 1641SOL    HW1 5166   2.276   6.143   2.990 -0.3391  2.5017 -0.6212
 1641SOL    HW2 5167   2.373   6.173   3.102 -0.2860 -0.2362  0.1451
 1642SOL     OW 5168   0.985   0.694   0.090 -0.0306  0.2794  0.4162
 1642SOL    HW1 5169   1.054   0.657   0.035  0.7687 -0.6302  1.9717
 1642SOL    HW2 5170   0.974   0.783   0.058  0.2608 -0.2685 -1.3232
 1643SOL     OW 5171   4.536   4.714   1.613  0.3281  0.3841  0.1797
 1643SOL    HW1 5172   4.538   4.762   1.696  1.4160  2.2982 -0.8965
 1643SOL    HW2 5173   4.624   4.678   1.604 -0.4569 -1.9022  0.9490
 1644SOL     OW 5174   3.497   5.019   2.201 -0.0213  0.3908  0.4861
 1644SOL    HW1 5175   3.556   4.982   2.266  1.8750  3.4435  0.7099
 1644SOL    HW2 5176   3.439   5.076   2.251 -0.3014  0.7198 -0.1990
 1645SOL     OW 5177   6.202   4.562   3.034  0.2357 -0.0195  0.4060
 1645SOL    HW1 5178   6.232   4.647   3.066  0.5140 -0.0934  0.3477
 1645SOL    HW2 5179   6.146   4.528   3.104  0.3790  0.0729  0.5674
 1646SOL     OW 5180   3.020   1.576   2.103  0.2053 -0.2370 -0.0301
 1646SOL    HW1 5181   2.951   1.643   2.105  1.0538  0.7861 -2.2417
 1646SOL    HW2 5182   3.066   1.587   2.186 -1.2616  0.1467  0.7804
 1647SOL     OW 5183   4.290   5.481   1.083 -0.0091  0.9106 -0.2070
 1647SOL    HW1 5184   4.268   5.569   1.113 -1.6773  0.1677  0.9381
 1647SOL    HW2 5185   4.335   5.442   1.158 -0.7188  0.2907 -0.0918
 1648SOL     OW 5186   3.361   3.424   1.639  0.2257  0.4392 -0.5710
 1648SOL    HW1 5187   3.451   3.394   1.651 -0.2111 -0.0320  2.3822
 1648SOL    HW2 5188   3.317   3.349   1.599  0.4297 -0.7884  1.3402
 1649SOL     OW 5189   5.579   5.227   1.885  0.1777  0.7695  0.0850
 1649SOL    HW1 5190   5.580   5.134   1.906 -2.9937  0.7505  0.6075
 1649SOL    HW2 5191   5.624   5.234   1.801  3.2907 -0.7039  1.4846
 1650SOL     OW 5192   3.541   2.251   0.596 -0.1521  0.0377  0.3843
 1650SOL    HW1 5193   3.615   2.291   0.550 -0.5142 -0.0901 -0.3190
 1650SOL    HW2 5194   3.581   2.179   0.645  0.0470 -0.7582 -0.8910
 1651SOL     OW 5195   3.323   2.720   2.158  0.4039  0.1565  0.1940
 1651SOL    HW1 5196   3.253   2.772   2.198 -2.1535 -2.1693 -0.9589
 1651SOL    HW2 5197   3.322   2.638   2.207  1.2576 -0.4967 -0.8469
 1652SOL     OW 5198   2.903   3.742   1.860  0.4297 -0.2578 -0.7497
 1652SOL    HW1 5199   2.971   3.697   1.810 -0.6906 -2.8832 -0.1061
 1652SOL    HW2 5200   2.881   3.681   1.930 -1.3953  1.2531  0.0837
 1653SOL     OW 5201   4.609   6.068   1.996  0.1682  0.2460 -0.1036
 1653SOL    HW1 5202   4.536   6.007   2.005  0.9450 -0.4977  1.4786
 1653SOL    HW2 5203   4.687   6.012   1.998  0.9599  1.3164  2.5352
 1654SOL     OW 5204   4.239   5.017   0.705 -0.0489  0.4838  0.4589
 1654SOL    HW1 5205   4.296   5.045   0.634 -0.8203  1.3428  0.1636
 1654SOL    HW2 5206   4.159   5.068   0.693 -1.1414 -1.1655  0.4837
 1655SOL     OW 5207   0.942   5.113   0.521 -0.0518  0.7327  0.1594
 1655SOL    HW1 5208   0.878   5.100   0.591  0.5760 -0.0711  0.6035
 1655SOL    HW2 5209   1.019   5.065   0.550  0.0364 -0.0896 -1.3436
 1656SOL     OW 5210   4.186   4.619   1.933 -0.3684  0.1999  0.0880
 1656SOL    HW1 5211   4.254   4.577   1.880  0.7688  1.8820  0.1514
 1656SOL    HW2 5212   4.228   4.633   2.018 -1.0531  0.5800  0.3641
 1657SOL     OW 5213   3.283   2.889   2.655  0.4926  0.4841  0.5540
 1657SOL    HW1 5214   3.259   2.972   2.694 -0.5312  0.9333 -0.9436
 1657SOL    HW2 5215   3.217   2.827   2.685 -1.1288  1.1366 -1.4718
 1658SOL     OW 5216   5.974   3.549   2.745 -0.2330 -0.3095 -0.3475
 1658SOL    HW1 5217   5.905   3.589   2.692 -0.4856  1.5390  1.2428
 1658SOL    HW2 5218   5.991   3.613   2.814  0.8093 -2.1288  1.1912
 1659SOL     OW 5219   1.161   4.618   0.956  0.1714  0.0691  0.4544
 1659SOL    HW1 5220   1.152   4.543   1.014  0.5517  0.4903  1.0714
 1659SOL    HW2 5221   1.253   4.643   0.963  0.3575 -0.2008 -0.7455
 1660SOL     OW 5222   6.636   3.799   3.341  0.1025  0.1209 -0.3868
 1660SOL    HW1 5223   6.594   3.772   3.423 -1.1489 -1.4253 -1.4736
 1660SOL    HW2 5224   6.689   3.723   3.316  0.1933  0.4399 -1.1695
 1661SOL     OW 5225   6.443   3.038   3.113 -0.0237 -0.1487  0.1935
 1661SOL    HW1 5226   6.508   2.987   3.161  0.8548  1.1071  0.3869
 1661SOL    HW2 5227   6.361   3.024   3.161  0.4825 -0.2894  1.0331
 1662SOL     OW 5228   2.613   2.962   2.399  0.1010  0.5247 -0.0325
 1662SOL    HW1 5229   2.600   2.874   2.436 -0.3676  0.0200 -1.3519
 1662SOL    HW2 5230   2.680   3.001   2.455  1.7626 -1.3939 -0.5650
 1663SOL     OW 5231   4.934   5.793   3.118 -0.5112 -0.1895 -0.6748
 1663SOL    HW1 5232   4.949   5.825   3.207  1.3542  0.4126 -1.1612
 1663SOL    HW2 5233   4.970   5.705   3.117  1.4159  0.5525 -1.3364
 1664SOL     OW 5234   2.477   5.485   2.268  0.2454 -0.0453 -0.2629
 1664SOL    HW1 5235   2.548   5.537   2.230  0.2178  0.1211 -0.0914
 1664SOL    HW2 5236   2.428   5.452   2.193  0.4307 -0.0553 -0.3782
 1665SOL     OW 5237   4.672   3.805   0.876  0.9345  0.2966 -0.1051
 1665SOL    HW1 5238   4.628   3.766   0.951  1.4784  0.2614  0.2060
 1665SOL    HW2 5239   4.602   3.842   0.823  0.4517 -0.6703 -0.1575
 1666SOL     OW 5240   2.995   2.764   0.388  0.3565  0.0044 -0.6949
 1666SOL    HW1 5241   2.924   2.827   0.402  0.2710  0.0732 -1.4001
 1666SOL    HW2 5242   3.072   2.818   0.371  0.3160 -0.0778 -1.1473
 1667SOL     OW 5243   2.185   2.428   1.121  0.3122  0.3361  0.5205
 1667SOL    HW1 5244   2.265   2.387   1.154  0.2204 -0.2145  0.0776
 1667SOL    HW2 5245   2.170   2.386   1.036 -0.1466  0.8261  0.3543
 1668SOL     OW 5246   6.619   3.397   3.003 -0.3273 -0.2746 -0.4014
 1668SOL    HW1 5247   6.570   3.340   2.943 -2.4688  0.1852  0.7959
 1668SOL    HW2 5248   6.663   3.460   2.946 -1.8212 -0.2059 -1.5352
 1669SOL     OW 5249   5.805   2.694   2.389  0.4487 -0.1022  0.4019
 1669SOL    HW1 5250   5.858   2.737   2.321  1.8234  0.5209  1.8060
 1669SOL    HW2 5251   5.728   2.661   2.342  2.2871 -1.4970 -1.8397
 1670SOL     OW 5252   6.253   5.353   3.160  0.2090  0.2251 -0.3824
 1670SOL    HW1 5253   6.265   5.427   3.221 -1.3990  0.5343 -0.3912
 1670SOL    HW2 5254   6.250   5.276   3.217  0.4507  0.3212 -0.2360
 1671SOL     OW 5255   4.910   1.723   0.856  0.0780  0.4392 -0.2490
 1671SOL    HW1 5256   4.914   1.793   0.791  0.6199  0.2597 -0.4256
 1671SOL    HW2 5257   4.981   1.743   0.917 -1.5748  1.6109  1.3727
 1672SOL     OW 5258   1.818   2.469   0.636 -0.7429  0.2778  0.1242
 1672SOL    HW1 5259   1.725   2.477   0.655 -0.6878 -0.2220  0.6425
 1672SOL    HW2 5260   1.822   2.448   0.542 -1.1615  0.0662  0.1524
 1673SOL     OW 5261   0.804   3.136   0.891 -0.1411 -0.1469  0.1639
 1673SOL    HW1 5262   0.762   3.052   0.873  0.5462 -0.5805  0.5607
 1673SOL    HW2 5263   0.884   3.135   0.839 -0.6115  0.6842 -0.6022
 1674SOL     OW 5264   1.917   3.622   1.161  0.1825 -0.0152 -0.0907
 1674SOL    HW1 5265   1.967   3.670   1.095  0.6557  1.1072  1.0477
 1674SOL    HW2 5266   1.979   3.558   1.196  0.6399  0.8957  0.8156
 1675SOL     OW 5267   2.251   4.360   1.592 -0.4608 -0.0145 -0.0544
 1675SOL    HW1 5268   2.346   4.356   1.603 -0.4763  2.4635  1.8420
 1675SOL    HW2 5269   2.216   4.317   1.670 -0.8671  0.4150  0.0027
 1676SOL     OW 5270   2.522   3.279   0.380  0.3687  0.1652  0.6218
 1676SOL    HW1 5271   2.442   3.238   0.414 -0.4635 -0.0987 -1.5062
 1676SOL    HW2 5272   2.593   3.234   0.426 -0.6550  1.3345  3.5893
 1677SOL     OW 5273   4.747   2.471   1.962 -0.0642 -0.1219 -0.0816
 1677SOL    HW1 5274   4.737   2.418   1.883 -0.6792 -0.0243 -0.0732
 1677SOL    HW2 5275   4.671   2.529   1.962 -0.2247 -0.3222  0.7324
 1678SOL     OW 5276   4.697   4.524   1.304 -0.0537 -0.2708 -0.4572
 1678SOL    HW1 5277   4.635   4.453   1.285 -0.2629  0.3926 -2.4935
 1678SOL    HW2 5278   4.726   4.507   1.393 -1.5323 -1.8342 -0.2202
 1679SOL     OW 5279   3.371   3.322   2.715  0.1428 -0.0484  0.8197
 1679SOL    HW1 5280   3.356   3.317   2.620  0.7224 -1.4401  0.7849
 1679SOL    HW2 5281   3.333   3.406   2.740 -1.9849 -0.5882 -0.2923
 1680SOL     OW 5282   4.859   2.976   1.555  0.0026  0.2677  0.0738
 1680SOL    HW1 5283   4.791   2.946   1.494 -1.2276  2.2827  0.3754
 1680SOL    HW2 5284   4.819   2.964   1.642  0.9776 -0.7382  0.4029
 1681SOL     OW 5285   3.384   4.353   2.569 -0.1040  0.8311 -0.0545
 1681SOL    HW1 5286   3.476   4.327   2.563  0.0898  1.8459 -3.7043
 1681SOL    HW2 5287   3.386   4.437   2.616  0.8694  0.9098 -0.2189
 1682SOL     OW 5288   1.890   1.674   1.273  0.0350  0.3639 -0.2637
 1682SOL    HW1 5289   1.798   1.662   1.295  0.4021 -0.2075  1.0896
 1682SOL    HW2 5290   1.889   1.719   1.189 -1.4710 -0.1355 -0.5509
 1683SOL     OW 5291   0.910   0.994   0.853  0.0653 -0.2851  0.1226
 1683SOL    HW1 5292   0.857   0.915   0.857  0.6714 -0.6279  2.1982
 1683SOL    HW2 5293   0.848   1.066   0.870 -0.4090 -0.2983 -1.3727
 1684SOL     OW 5294   4.246   2.579   0.288  0.3164 -0.3341 -0.6223
 1684SOL    HW1 5295   4.240   2.665   0.330 -1.8888 -0.6945 -0.1085
 1684SOL    HW2 5296   4.329   2.543   0.319  0.7215  1.1087  0.0758
 1685SOL     OW 5297   3.520   2.050   2.107  0.0180 -0.1766 -0.6162
 1685SOL    HW1 5298   3.606   2.052   2.064 -0.2485 -1.5973 -1.2747
 1685SOL    HW2 5299   3.485   1.963   2.087 -0.8034 -0.3130  1.2011
 1686SOL     OW 5300   1.134   5.155   1.079  0.4919 -0.3317 -0.8424
 1686SOL    HW1 5301   1.064   5.094   1.104 -0.1187  1.1230  1.2393
 1686SOL    HW2 5302   1.108   5.186   0.993  0.0576 -1.8953 -1.3203
 1687SOL     OW 5303   4.477   1.986   2.213  0.2021 -0.0602 -0.0574
 1687SOL    HW1 5304   4.420   2.029   2.149  0.9166 -0.5931 -1.0867
 1687SOL    HW2 5305   4.471   2.041   2.291 -0.8651  0.4877 -0.5049
 1688SOL     OW 5306   4.511   2.119   1.629 -0.1732 -0.1125  0.2103
 1688SOL    HW1 5307   4.506   2.033   1.670  0.4926  0.1775  0.9311
 1688SOL    HW2 5308   4.514   2.181   1.702 -0.4888  0.5152 -0.2935
 1689SOL     OW 5309   4.891   4.318   1.203 -0.2192  0.3958  0.4672
 1689SOL    HW1 5310   4.887   4.409   1.234 -0.5600  0.6569 -0.3263
 1689SOL    HW2 5311   4.974   4.313   1.156 -0.7151  0.6055 -0.4360
 1690SOL     OW 5312   2.723   4.370   2.898 -0.2559 -0.0110  0.1014
 1690SOL    HW1 5313   2.662   4.309   2.939 -1.2217 -0.0489 -1.3099
 1690SOL    HW2 5314   2.794   4.316   2.865  0.2414 -0.0411  1.1742
 1691SOL     OW 5315   2.338   3.221   2.590 -0.3228  0.3078 -0.1524
 1691SOL    HW1 5316   2.400   3.274   2.541  1.2320 -1.6030 -0.3785
 1691SOL    HW2 5317   2.265   3.207   2.529  0.2096  0.4531 -0.8348
 1692SOL     OW 5318   3.256   2.859   0.184  0.1012 -0.1807 -0.2305
 1692SOL    HW1 5319   3.188   2.872   0.118 -1.0165  1.1686  1.1286
 1692SOL    HW2 5320   3.300   2.944   0.191  1.0012 -0.6470 -0.0666
 1693SOL     OW 5321   4.370   5.485   2.711  0.0814 -1.2074 -0.1339
 1693SOL    HW1 5322   4.456   5.527   2.706 -0.8719  0.7469 -0.9110
 1693SOL    HW2 5323   4.383   5.413   2.773  1.8351  0.1295  1.1532
 1694SOL     OW 5324   3.042   1.882   0.574  0.2537  0.3247 -0.4553
 1694SOL    HW1 5325   3.066   1.792   0.554  1.3030  0.7350 -1.1692
 1694SOL    HW2 5326   3.125   1.925   0.595 -0.3102  0.9639  0.5749
 1695SOL     OW 5327   5.270   1.946   1.790 -0.0407  0.5572 -0.1426
 1695SOL    HW1 5328   5.363   1.923   1.791  0.1802  1.3854  1.2760
 1695SOL    HW2 5329   5.253   1.972   1.699  0.5831 -1.5009 -0.9134
 1696SOL     OW 5330   1.512   4.387   0.493  0.3677 -0.0044 -0.6004
 1696SOL    HW1 5331   1.485   4.471   0.531 -2.2724 -0.9435 -0.2094
 1696SOL    HW2 5332   1.557   4.411   0.412  0.3039  1.8031 -0.1421
 1697SOL     OW 5333   6.102   4.687   2.566  0.6466 -0.4192 -0.1808
 1697SOL    HW1 5334   6.034   4.656   2.506  0.4044  0.3774 -0.3324
 1697SOL    HW2 5335   6.095   4.630   2.642 -0.1103 -0.4230 -0.2461
 1698SOL     OW 5336   6.039   2.184   2.229 -0.8603  0.2175  0.4989
 1698SOL    HW1 5337   6.089   2.103   2.222  0.2472  0.8504  0.8412
 1698SOL    HW2 5338   6.039   2.221   2.140  0.2299  0.7491  0.7054
 1699SOL     OW 5339   4.438   2.936   1.410 -0.3836 -0.9215  0.0484
 1699SOL    HW1 5340   4.396   3.014   1.446  1.6443  0.0354  0.4918
 1699SOL    HW2 5341   4.425   2.942   1.316 -1.2286 -0.6632  0.1824
 1700SOL     OW 5342   1.407   3.465   0.939 -0.2117  0.2448  0.2876
 1700SOL    HW1 5343   1.329   3.519   0.954 -0.5121  0.3267 -1.3556
 1700SOL    HW2 5344   1.375   3.375   0.943 -0.7056  0.2888 -1.6695
 1701SOL     OW 5345   2.223   2.261   0.619 -0.2688 -0.0802  0.1072
 1701SOL    HW1 5346   2.203   2.239   0.528 -1.8663  2.4950 -0.2513
 1701SOL    HW2 5347   2.289   2.330   0.613 -1.0506  0.7476  0.8502
 1702SOL     OW 5348   1.998   6.194   2.123 -0.5558 -0.3638 -0.2663
 1702SOL    HW1 5349   2.026   6.187   2.031  1.7979  0.5319  0.3175
 1702SOL    HW2 5350   2.016   6.108   2.160  2.5691  0.3901  0.2988
 1703SOL     OW 5351   5.904   5.362   2.849 -0.0270  0.5575 -0.7459
 1703SOL    HW1 5352   5.921   5.336   2.940  2.0721  0.4793 -1.1290
 1703SOL    HW2 5353   5.945   5.448   2.841  0.6345  0.1512 -1.8747
 1704SOL     OW 5354   0.312   1.621   0.365 -0.1724 -0.0600 -0.3295
 1704SOL    HW1 5355   0.394   1.607   0.411 -0.4892 -0.5920  0.0887
 1704SOL    HW2 5356   0.272   1.534   0.362 -1.1559  0.3533  0.3105
 1705SOL     OW 5357   0.822   4.537   0.005  0.4409 -0.3511 -0.0306
 1705SOL    HW1 5358   0.744   4.504   0.049 -0.4208 -0.2494 -1.4033
 1705SOL    HW2 5359   0.885   4.466   0.013 -0.5441 -1.3499 -0.7580
 1706SOL     OW 5360   4.314   1.578   0.305 -0.0298  0.3863  0.3427
 1706SOL    HW1 5361   4.352   1.664   0.286 -0.8392  0.7379  0.2857
 1706SOL    HW2 5362   4.385   1.516   0.289  0.2428  0.9482 -0.7067
 1707SOL     OW 5363   4.670   5.652   3.189  0.2724  0.1679  0.3213
 1707SOL    HW1 5364   4.737   5.607   3.138  0.2400  0.4310  0.0442
 1707SOL    HW2 5365   4.712   5.673   3.273  0.9570  1.4971 -0.3311
 1708SOL     OW 5366   5.718   2.691   1.824  0.4910 -0.4838 -0.0338
 1708SOL    HW1 5367   5.788   2.694   1.889  2.5545 -2.8339 -1.9340
 1708SOL    HW2 5368   5.730   2.770   1.772 -0.9014  1.1855  2.0407
 1709SOL     OW 5369   2.128   2.324   0.884 -0.3715 -0.1268  0.6203
 1709SOL    HW1 5370   2.112   2.335   0.790 -1.4460  0.2901  0.8412
 1709SOL    HW2 5371   2.217   2.288   0.889 -0.2745 -0.0857 -0.5488
 1710SOL     OW 5372   3.689   2.814   0.959  0.4582  0.5084  0.4263
 1710SOL    HW1 5373   3.773   2.772   0.979  0.9049  1.8048  1.4173
 1710SOL    HW2 5374   3.671   2.869   1.036 -1.4148  0.0992  0.3386
 1711SOL     OW 5375   4.561   4.435   2.760  0.8710 -0.2115 -0.0031
 1711SOL    HW1 5376   4.479   4.418   2.808  0.2246  1.5619 -0.4011
 1711SOL    HW2 5377   4.565   4.530   2.752  1.9460 -0.3589 -1.7850
 1712SOL     OW 5378   6.140   2.455   3.265 -0.6618  0.6923  0.5817
 1712SOL    HW1 5379   6.156   2.436   3.173  0.6048  0.5568  0.8162
 1712SOL    HW2 5380   6.200   2.526   3.286 -0.6012  0.4080  1.4181
 1713SOL     OW 5381   4.944   1.346   0.970 -0.3973  0.0122  0.2759
 1713SOL    HW1 5382   5.004   1.272   0.962 -1.0274 -0.6849  1.5837
 1713SOL    HW2 5383   4.997   1.415   1.011  0.1210  0.2207 -0.7121
 1714SOL     OW 5384   3.166   3.074   2.795  0.3225  0.1093  0.3107
 1714SOL    HW1 5385   3.185   3.154   2.747  0.0410  0.0465  0.0919
 1714SOL    HW2 5386   3.094   3.098   2.854 -1.6955 -0.6661 -1.6986
 1715SOL     OW 5387   5.600   2.294   3.138 -0.4765 -0.2200  0.7549
 1715SOL    HW1 5388   5.615   2.363   3.074  0.5253 -0.2537  0.9389
 1715SOL    HW2 5389   5.675   2.299   3.196  0.5204 -2.5313 -0.2076
 1716SOL     OW 5390   2.728   5.419   1.305 -0.4593 -0.6633 -0.6102
 1716SOL    HW1 5391   2.703   5.331   1.331  0.1893 -0.9423 -0.9077
 1716SOL    HW2 5392   2.812   5.435   1.348  0.5322 -1.0634 -2.3124
 1717SOL     OW 5393   0.564   1.901   0.306 -0.3050 -0.4473  0.0960
 1717SOL    HW1 5394   0.520   1.973   0.260  0.3041  0.1995  0.5016
 1717SOL    HW2 5395   0.569   1.930   0.397  2.5765  0.3795 -0.2199
 1718SOL     OW 5396   2.026   4.931   0.297  0.0113 -0.5322  0.3429
 1718SOL    HW1 5397   2.048   4.888   0.215  1.5977 -0.9756  0.9607
 1718SOL    HW2 5398   2.108   4.934   0.346 -1.5441 -4.0699  3.7244
 1719SOL     OW 5399   5.624   2.991   1.926 -0.1600 -0.2533 -0.1806
 1719SOL    HW1 5400   5.546   2.935   1.927 -0.4839  0.1516  1.9194
 1719SOL    HW2 5401   5.596   3.069   1.879 -0.0281 -1.3580 -2.1896
 1720SOL     OW 5402   2.476   3.179   2.822  0.4006  0.3446 -0.0159
 1720SOL    HW1 5403   2.411   3.174   2.751  0.5108 -1.1082 -0.0568
 1720SOL    HW2 5404   2.424   3.171   2.902  0.5946 -3.7809 -0.0751
 1721SOL     OW 5405   4.702   4.019   0.555 -0.3501 -0.0535 -0.2478
 1721SOL    HW1 5406   4.624   4.008   0.608  0.1500  1.6201  0.9152
 1721SOL    HW2 5407   4.773   3.980   0.607 -0.1699 -0.2570 -0.6389
 1722SOL     OW 5408   4.291   4.602   2.718  0.4716  0.2100  0.2445
 1722SOL    HW1 5409   4.303   4.628   2.626  0.1893  1.9877  0.6819
 1722SOL    HW2 5410   4.236   4.523   2.713  1.1123 -0.1813 -1.1409
 1723SOL     OW 5411   5.204   4.008   2.728  0.3679 -0.2060  0.1259
 1723SOL    HW1 5412   5.278   3.992   2.670 -0.2567  0.1465 -0.7988
 1723SOL    HW2 5413   5.241   4.055   2.803  1.0621  0.0188 -0.3504
 1724SOL     OW 5414   3.052   4.486   0.409  0.0547  0.4323  0.1967
 1724SOL    HW1 5415   2.983   4.549   0.385 -0.2496 -0.4466 -1.3730
 1724SOL    HW2 5416   3.133   4.532   0.389 -0.1393  0.6738 -0.0531
 1725SOL     OW 5417   3.289   4.614   0.331 -0.1320 -0.2991  0.3109
 1725SOL    HW1 5418   3.368   4.564   0.307  0.6269  0.5380  1.0021
 1725SOL    HW2 5419   3.281   4.679   0.261 -0.4543 -0.6371  0.0271
 1726SOL     OW 5420   3.419   3.093   0.252  0.3558  0.3063  0.1866
 1726SOL    HW1 5421   3.503   3.112   0.293  0.2149  1.2110  0.0695
 1726SOL    HW2 5422   3.427   3.125   0.162  1.0050 -2.5483 -0.8677
 1727SOL     OW 5423   1.075   2.355   0.090 -0.0986  0.0237 -0.2187
 1727SOL    HW1 5424   0.983   2.330   0.099 -0.2052  0.2726 -0.5821
 1727SOL    HW2 5425   1.081   2.394   0.003 -0.1688  2.3429  0.7611
 1728SOL     OW 5426   5.468   4.060   1.451  0.2457 -0.1350  0.3425
 1728SOL    HW1 5427   5.533   4.028   1.513 -0.3705  0.4197  1.2942
 1728SOL    HW2 5428   5.403   3.989   1.445  0.8465 -0.6335 -0.5068
 1729SOL     OW 5429   0.765   2.358   0.885  0.2242  0.0712  0.5124
 1729SOL    HW1 5430   0.702   2.342   0.815 -0.7225  0.5236  1.2492
 1729SOL    HW2 5431   0.779   2.273   0.925  0.6078 -0.1517 -0.0742
 1730SOL     OW 5432   5.983   3.790   2.916  0.3120 -0.5662  0.5668
 1730SOL    HW1 5433   6.000   3.756   3.004 -1.5867 -1.4142  0.6548
 1730SOL    HW2 5434   5.894   3.826   2.921  0.9901  1.3811 -0.4536
 1731SOL     OW 5435   2.475   3.450   2.498 -0.1562  0.8530 -0.3351
 1731SOL    HW1 5436   2.502   3.472   2.409 -0.9786  1.4517 -0.4464
 1731SOL    HW2 5437   2.555   3.457   2.550 -0.0958  2.6936 -0.6352
 1732SOL     OW 5438   4.786   1.142   0.607 -0.0209  0.6192 -0.1318
 1732SOL    HW1 5439   4.706   1.092   0.587 -1.1405  1.3866  2.0684
 1732SOL    HW2 5440   4.755   1.232   0.619  1.1376  0.8932  0.9623
 1733SOL     OW 5441   3.465   4.001   0.518  0.2614  0.2582  0.0498
 1733SOL    HW1 5442   3.391   4.047   0.559  0.8237  0.1300  1.2547
 1733SOL    HW2 5443   3.425   3.927   0.473 -0.2303 -1.0143  2.3907
 1734SOL     OW 5444   4.470   0.830   0.919  0.0782 -0.1682  0.0263
 1734SOL    HW1 5445   4.453   0.923   0.935  0.4386  0.0249 -0.6960
 1734SOL    HW2 5446   4.515   0.800   0.998 -1.0644 -0.0138  0.7546
 1735SOL     OW 5447   4.430   5.923   2.476  0.3763 -0.2116 -0.2735
 1735SOL    HW1 5448   4.414   5.893   2.566  0.8153 -0.9528 -0.4388
 1735SOL    HW2 5449   4.526   5.921   2.468  0.3813  0.6268 -0.4980
 1736SOL     OW 5450   1.951   4.188   0.858 -0.1019 -0.3345  0.5909
 1736SOL    HW1 5451   1.964   4.233   0.774 -0.8933 -0.3188  0.4695
 1736SOL    HW2 5452   1.881   4.237   0.901  0.8799  0.1726  1.6453
 1737SOL     OW 5453   1.621   1.925   2.344 -0.0091 -0.3573  0.0646
 1737SOL    HW1 5454   1.678   1.848   2.352  0.2676 -0.2412 -0.7073
 1737SOL    HW2 5455   1.681   2.000   2.346 -0.0046 -0.2741 -1.8436
 1738SOL     OW 5456   2.560   2.771   1.780 -0.3018  0.5477  0.8272
 1738SOL    HW1 5457   2.483   2.715   1.779  0.0987 -0.0008 -0.2632
 1738SOL    HW2 5458   2.597   2.763   1.692  0.9646  0.8519  1.3135
 1739SOL     OW 5459   5.279   3.139   1.652  0.2977 -0.0025  0.1009
 1739SOL    HW1 5460   5.338   3.064   1.660  1.8174  1.0204 -0.9593
 1739SOL    HW2 5461   5.331   3.214   1.681  0.3832  1.2760 -2.9822
 1740SOL     OW 5462   2.532   4.387   3.282 -0.4217 -0.3177  0.3924
 1740SOL    HW1 5463   2.600   4.454   3.291  0.3884 -1.1741  0.9033
 1740SOL    HW2 5464   2.544   4.331   3.359  1.0233 -2.8789 -1.5186
 1741SOL     OW 5465   3.811   1.491   0.018 -0.4001 -0.2332  0.0385
 1741SOL    HW1 5466   3.838   1.412   0.065 -1.7492 -0.8006 -0.0865
 1741SOL    HW2 5467   3.822   1.469  -0.074 -1.1726 -0.4492 -0.0121
 1742SOL     OW 5468   5.663   6.050   3.404  0.1774  0.8606  0.3072
 1742SOL    HW1 5469   5.639   6.140   3.382 -0.6217  0.4828 -0.4515
 1742SOL    HW2 5470   5.639   5.999   3.326 -2.3601 -0.4910  1.8055
 1743SOL     OW 5471   2.737   5.010   2.278 -0.4400 -0.2725  0.0792
 1743SOL    HW1 5472   2.753   5.104   2.279  2.0227 -0.6194 -0.1419
 1743SOL    HW2 5473   2.713   4.988   2.368 -1.6488  0.6019  0.0069
 1744SOL     OW 5474   3.646   2.439   0.960  0.0149 -0.1381  0.0559
 1744SOL    HW1 5475   3.740   2.457   0.970  0.2365 -0.1952 -1.7563
 1744SOL    HW2 5476   3.605   2.493   1.028  1.2024  1.6159 -0.5646
 1745SOL     OW 5477   1.238   0.445   0.408  0.4052 -0.4637  0.1817
 1745SOL    HW1 5478   1.164   0.387   0.424 -0.5681  0.5046 -0.6752
 1745SOL    HW2 5479   1.315   0.391   0.427 -0.4820 -1.7754  0.1874
 1746SOL     OW 5480   1.748   2.185   2.383  0.0530 -0.2694 -0.1670
 1746SOL    HW1 5481   1.698   2.212   2.460  1.2589  2.6376 -0.2657
 1746SOL    HW2 5482   1.830   2.149   2.419 -0.1533 -0.6784 -0.0946
 1747SOL     OW 5483   2.511   0.807   0.995 -0.4180 -0.1643 -0.2374
 1747SOL    HW1 5484   2.548   0.889   1.029  0.0604 -0.9120  1.1256
 1747SOL    HW2 5485   2.422   0.831   0.967  0.0379  1.0080 -0.7684
 1748SOL     OW 5486   2.181   4.874   2.763  0.0665  0.0003 -0.1059
 1748SOL    HW1 5487   2.121   4.848   2.833  0.2622 -0.9080 -0.2675
 1748SOL    HW2 5488   2.267   4.876   2.805 -0.0120  0.9376  0.0346
 1749SOL     OW 5489   6.340   4.929   2.348 -0.0550 -0.5703  0.3054
 1749SOL    HW1 5490   6.368   4.959   2.435  1.8912  1.5987 -0.9514
 1749SOL    HW2 5491   6.286   5.001   2.314  1.4256 -0.1482 -1.2712
 1750SOL     OW 5492   6.808   3.823   3.031  0.0072  0.0108 -0.0661
 1750SOL    HW1 5493   6.808   3.886   3.103 -1.8822  1.1005 -0.9668
 1750SOL    HW2 5494   6.769   3.744   3.068 -3.2595  1.3297 -0.4278
 1751SOL     OW 5495   4.925   5.405   1.539  0.2234  0.3374  0.6526
 1751SOL    HW1 5496   4.874   5.485   1.521 -1.6389 -0.9028  0.0742
 1751SOL    HW2 5497   4.882   5.367   1.615  0.2972 -0.7295  0.1707
 1752SOL     OW 5498   4.342   3.714   2.707  0.9974  0.3717 -0.2548
 1752SOL    HW1 5499   4.267   3.759   2.668  1.3772  0.8992 -0.3870
 1752SOL    HW2 5500   4.309   3.627   2.728 -0.0848  1.0501  1.0599
 1753SOL     OW 5501   3.008   3.049   3.367  0.1426 -0.1451  0.2702
 1753SOL    HW1 5502   3.085   3.105   3.377 -0.9069  1.3313  0.5124
 1753SOL    HW2 5503   3.035   2.964   3.399  1.2223  0.7483  1.8648
 1754SOL     OW 5504   4.868   2.651   3.294  0.1721 -0.3015  0.1331
 1754SOL    HW1 5505   4.853   2.738   3.259 -0.7964 -1.0251 -1.3106
 1754SOL    HW2 5506   4.824   2.651   3.379  0.4067  0.6797  0.2650
 1755SOL     OW 5507   2.299   5.900   2.950  0.0368 -0.0990 -1.2891
 1755SOL    HW1 5508   2.328   5.944   2.870 -1.6435  3.1734 -0.2679
 1755SOL    HW2 5509   2.314   5.964   3.020 -1.1761 -1.7341  0.5899
 1756SOL     OW 5510   3.250   3.750   3.296 -0.1424  0.4350  0.4903
 1756SOL    HW1 5511   3.259   3.789   3.209 -1.2701  0.6181  0.4388
 1756SOL    HW2 5512   3.183   3.682   3.285 -1.1091  1.1969  1.4222
 1757SOL     OW 5513   4.790   4.505   0.919  0.3636  0.1263  0.2509
 1757SOL    HW1 5514   4.787   4.447   0.995  0.2962 -0.8833 -0.5054
 1757SOL    HW2 5515   4.721   4.473   0.861 -1.8788  2.9396  1.1689
 1758SOL     OW 5516   5.571   1.973   1.746 -0.2751  0.5198 -0.3769
 1758SOL    HW1 5517   5.589   1.976   1.841  0.9542 -0.4365 -0.5495
 1758SOL    HW2 5518   5.614   1.893   1.717 -0.4158  0.9489 -1.8028
 1759SOL     OW 5519   6.376   2.997   2.677 -0.1817 -0.0974 -0.0657
 1759SOL    HW1 5520   6.399   2.925   2.619 -1.4073 -0.4219 -0.1768
 1759SOL    HW2 5521   6.322   2.957   2.745 -1.2171  0.7584 -0.3550
 1760SOL     OW 5522   3.364   4.541   2.040 -0.1746  0.1124 -0.2042
 1760SOL    HW1 5523   3.456   4.564   2.055 -0.5641  1.0765  0.8077
 1760SOL    HW2 5524   3.343   4.480   2.111 -0.0267 -1.0007 -1.0825
 1761SOL     OW 5525   2.859   3.281   3.252 -0.5089 -0.7170 -0.8645
 1761SOL    HW1 5526   2.913   3.208   3.282  1.0984  0.6834 -0.1388
 1761SOL    HW2 5527   2.917   3.357   3.256 -2.6291  0.9810  0.3643
 1762SOL     OW 5528   4.103   2.309   0.297  0.2520  0.0273  0.3382
 1762SOL    HW1 5529   4.127   2.401   0.288  0.4643 -0.1592 -1.1404
 1762SOL    HW2 5530   4.008   2.311   0.308  0.2938  0.4341  0.6905
 1763SOL     OW 5531   3.929   5.487   2.645 -0.3187  0.3275 -0.5736
 1763SOL    HW1 5532   4.012   5.452   2.614 -0.3333  0.1940 -0.4653
 1763SOL    HW2 5533   3.873   5.491   2.568 -0.2707  0.2488 -0.6116
 1764SOL     OW 5534   2.119   3.151   0.820 -0.0717 -0.2068  0.2169
 1764SOL    HW1 5535   2.073   3.228   0.787  0.3570 -0.4650 -1.0523
 1764SOL    HW2 5536   2.184   3.132   0.753 -1.5124 -2.9180 -0.5697
 1765SOL     OW 5537   5.293   4.878   0.857 -0.6371  0.1369  0.3729
 1765SOL    HW1 5538   5.309   4.924   0.939 -1.1722 -0.3327  0.7439
 1765SOL    HW2 5539   5.368   4.819   0.847  0.8774  2.1323 -0.8845
 1766SOL     OW 5540   1.961   2.179   0.680 -0.0665  0.5250  0.0232
 1766SOL    HW1 5541   2.047   2.202   0.645 -0.9290  2.1956 -1.1194
 1766SOL    HW2 5542   1.931   2.258   0.724 -0.3452 -0.5730  1.9041
 1767SOL     OW 5543   2.720   6.236   2.449  0.4442  0.1842  0.4482
 1767SOL    HW1 5544   2.640   6.269   2.408  0.2026 -1.8227 -0.8572
 1767SOL    HW2 5545   2.783   6.307   2.440 -0.7671  1.2677  0.2079
 1768SOL     OW 5546   3.034   3.216   0.350  0.3730 -0.3686  0.7444
 1768SOL    HW1 5547   3.103   3.216   0.417 -0.6031  2.2366  1.9020
 1768SOL    HW2 5548   2.960   3.174   0.393 -0.3206  1.4931  1.4729
 1769SOL     OW 5549   4.476   3.626   1.554  0.6280 -0.0654 -0.4002
 1769SOL    HW1 5550   4.406   3.562   1.552  1.8482 -1.4243 -1.3235
 1769SOL    HW2 5551   4.453   3.685   1.627 -1.7102 -0.1211 -1.0193
 1770SOL     OW 5552   1.990   1.980   1.216 -0.6108 -0.6036 -0.3139
 1770SOL    HW1 5553   2.014   1.941   1.299  1.4331 -1.3059 -1.1712
 1770SOL    HW2 5554   1.968   1.905   1.160 -0.7605 -0.2299 -0.7638
 1771SOL     OW 5555   4.048   1.833   0.062 -0.1258  0.0407  0.0102
 1771SOL    HW1 5556   4.077   1.761   0.007  0.8934  1.3141 -1.1882
 1771SOL    HW2 5557   4.129   1.874   0.093 -0.6698 -0.1791  1.8920
 1772SOL     OW 5558   5.079   4.485   2.937 -1.0529 -0.3788  0.0496
 1772SOL    HW1 5559   4.990   4.504   2.907 -0.7975  1.5235  0.3583
 1772SOL    HW2 5560   5.130   4.473   2.857 -0.9292  1.9455 -0.2831
 1773SOL     OW 5561   5.118   2.445   3.007  0.0835  0.5250  0.4605
 1773SOL    HW1 5562   5.068   2.439   3.088  0.8692  0.2928  0.9358
 1773SOL    HW2 5563   5.209   2.435   3.034  0.3044 -0.3678 -0.5379
 1774SOL     OW 5564   3.273   0.765   0.723 -0.0510  0.3274 -0.1863
 1774SOL    HW1 5565   3.240   0.715   0.798 -2.5063 -0.2093 -1.5243
 1774SOL    HW2 5566   3.346   0.714   0.690  0.1995 -0.1334  1.0146
 1775SOL     OW 5567   2.815   2.579   1.996  0.0361 -0.0451  0.2619
 1775SOL    HW1 5568   2.768   2.538   2.069 -0.6409  0.4860  0.1365
 1775SOL    HW2 5569   2.777   2.540   1.918  0.8416 -0.6979  0.1807
 1776SOL     OW 5570   1.407   5.562   1.817 -0.2194  0.1264 -0.7015
 1776SOL    HW1 5571   1.374   5.631   1.759 -0.5480 -1.1604 -2.1336
 1776SOL    HW2 5572   1.491   5.537   1.778  0.5448  0.6150  0.5856
 1777SOL     OW 5573   5.718   2.896   1.317  0.2161 -0.1275 -0.8610
 1777SOL    HW1 5574   5.694   2.873   1.226 -0.8625  0.0189 -0.6327
 1777SOL    HW2 5575   5.655   2.847   1.370  0.2884  0.4720 -0.2214
 1778SOL     OW 5576   5.620   5.358   2.519 -0.4819 -0.2405 -0.0272
 1778SOL    HW1 5577   5.706   5.382   2.486 -0.2840 -0.4262  0.3569
 1778SOL    HW2 5578   5.565   5.435   2.501  0.1263  0.4882  1.1222
 1779SOL     OW 5579   3.451   2.270   1.793  0.4678 -0.1541 -0.1619
 1779SOL    HW1 5580   3.517   2.201   1.788  0.3435 -0.2869  0.0110
 1779SOL    HW2 5581   3.466   2.311   1.878  1.7024  1.2081 -0.9937
 1780SOL     OW 5582   3.721   5.807   2.996  0.0264  0.1026  0.6189
 1780SOL    HW1 5583   3.808   5.805   2.955 -0.8295 -0.6574 -1.3136
 1780SOL    HW2 5584   3.738   5.796   3.089  1.8329 -4.0259  0.0080
 1781SOL     OW 5585   3.417   2.005   1.393 -0.3063 -0.7298 -0.1346
 1781SOL    HW1 5586   3.430   1.941   1.463 -1.1669  0.3590  1.0504
 1781SOL    HW2 5587   3.494   1.994   1.337  1.0481 -0.8103  1.6445
 1782SOL     OW 5588   1.965   3.708   0.065 -0.0202 -0.0864  0.3242
 1782SOL    HW1 5589   2.017   3.702  -0.015 -1.1043 -0.3175 -0.3895
 1782SOL    HW2 5590   1.990   3.792   0.104 -0.2750  0.5506 -0.8477
 1783SOL     OW 5591   2.128   3.591   0.638 -0.0987  0.4455  0.4736
 1783SOL    HW1 5592   2.222   3.573   0.634 -0.2931 -0.7076  0.7052
 1783SOL    HW2 5593   2.108   3.633   0.554  0.0412 -2.3965 -1.1205
 1784SOL     OW 5594   3.515   5.338   1.780 -0.0642 -0.0788 -0.1323
 1784SOL    HW1 5595   3.466   5.279   1.722  2.1290 -0.8523 -1.3217
 1784SOL    HW2 5596   3.565   5.279   1.836  2.1087  0.5690 -1.2890
 1785SOL     OW 5597   5.397   2.954   2.885  0.2021  0.0182  0.6719
 1785SOL    HW1 5598   5.438   2.993   2.962 -0.1962  1.1898  0.3093
 1785SOL    HW2 5599   5.453   2.981   2.812 -0.3269  0.3065  0.3661
 1786SOL     OW 5600   3.159   6.433   2.334 -0.1937 -0.3913  0.5440
 1786SOL    HW1 5601   3.159   6.471   2.421 -0.3493  0.7064  0.0834
 1786SOL    HW2 5602   3.251   6.415   2.315 -0.0050  0.6620  0.4008
 1787SOL     OW 5603   3.260   2.007   0.642 -0.2609  0.0986 -0.6464
 1787SOL    HW1 5604   3.294   2.056   0.568  1.0801 -0.5063 -0.4558
 1787SOL    HW2 5605   3.257   2.070   0.714  1.1210  0.0155 -0.4945
 1788SOL     OW 5606   4.120   2.433   1.502  0.1949 -0.3203  0.0362
 1788SOL    HW1 5607   4.038   2.397   1.534 -0.5835  1.1247 -0.2030
 1788SOL    HW2 5608   4.140   2.381   1.424 -0.7303 -0.4499 -0.1369
 1789SOL     OW 5609   3.606   1.836   2.434  0.3744  0.1573 -0.0640
 1789SOL    HW1 5610   3.585   1.905   2.497 -2.2050 -0.9648  0.4769
 1789SOL    HW2 5611   3.638   1.883   2.357  2.1800  1.6624  1.4909
 1790SOL     OW 5612   4.706   3.561   2.479  0.7616  0.5291  0.1113
 1790SOL    HW1 5613   4.692   3.646   2.521 -0.8975  0.5863 -0.4891
 1790SOL    HW2 5614   4.701   3.579   2.385  1.2749 -0.1008 -0.0462
 1791SOL     OW 5615   2.914   2.307   1.586 -0.2211 -0.1582  0.3681
 1791SOL    HW1 5616   2.961   2.274   1.663 -1.4802  0.1599  1.2983
 1791SOL    HW2 5617   2.982   2.348   1.533  0.5562  0.4276  1.7552
 1792SOL     OW 5618   2.411   2.442   1.403 -0.2923  0.3509 -0.3258
 1792SOL    HW1 5619   2.488   2.389   1.421 -0.1652  0.4877 -0.4682
 1792SOL    HW2 5620   2.338   2.391   1.438 -0.1000  0.3954  0.1403
 1793SOL     OW 5621   4.045   4.575   2.294  0.3199 -0.4069  0.8598
 1793SOL    HW1 5622   4.072   4.486   2.270  0.3411 -0.9589  2.7600
 1793SOL    HW2 5623   4.126   4.623   2.308  0.3246  0.1771 -0.8876
 1794SOL     OW 5624   1.699   1.819   1.653  0.4890  0.0952  0.5055
 1794SOL    HW1 5625   1.655   1.867   1.583 -1.5096 -0.1221  1.5668
 1794SOL    HW2 5626   1.784   1.864   1.662  1.0141 -0.1623 -2.3058
 1795SOL     OW 5627   4.876   6.914   3.179 -0.3481  0.3931 -0.0986
 1795SOL    HW1 5628   4.941   6.884   3.116 -0.2467  1.9417 -0.7825
 1795SOL    HW2 5629   4.895   7.008   3.191 -1.5459  0.5530  0.7875
 1796SOL     OW 5630   2.644   3.403   2.695 -0.1250  0.5577 -0.2253
 1796SOL    HW1 5631   2.581   3.350   2.743 -1.9514  1.7083 -1.2460
 1796SOL    HW2 5632   2.729   3.380   2.733 -1.2243 -0.4106  1.7811
 1797SOL     OW 5633   4.949   4.929   0.796  0.2103 -0.2989  0.0967
 1797SOL    HW1 5634   4.933   5.016   0.759  0.8613  0.7763  2.1937
 1797SOL    HW2 5635   5.043   4.916   0.788  0.3802  0.0053  1.4088
 1798SOL     OW 5636   0.913   1.353   0.447 -0.1395  0.6554  0.0613
 1798SOL    HW1 5637   0.991   1.351   0.393  0.2037 -1.3515  0.5707
 1798SOL    HW2 5638   0.852   1.294   0.404 -0.2106 -0.2217  1.3311
 1799SOL     OW 5639   3.817   5.466   0.978  0.3486  0.1372  0.3607
 1799SOL    HW1 5640   3.893   5.444   1.032  1.1437  1.1019 -0.3115
 1799SOL    HW2 5641   3.822   5.404   0.905 -0.4498 -0.8515  1.1284
 1800SOL     OW 5642   5.638   1.756   2.405 -0.2070  0.5742 -0.2731
 1800SOL    HW1 5643   5.676   1.842   2.420  1.6166  0.0731 -1.6862
 1800SOL    HW2 5644   5.552   1.760   2.447  0.3981  2.5926  0.8960
 1801SOL     OW 5645   2.268   1.906   1.847 -0.0928  0.2864  0.2472
 1801SOL    HW1 5646   2.264   1.819   1.886  0.3938  0.3873  0.5247
 1801SOL    HW2 5647   2.205   1.902   1.775  0.9119 -0.7324 -0.6118
 1802SOL     OW 5648   2.533   3.639   2.775 -0.3409  0.7773  0.0189
 1802SOL    HW1 5649   2.521   3.642   2.870 -0.4919 -0.9432  0.0980
 1802SOL    HW2 5650   2.591   3.563   2.761 -2.0995 -0.3878 -1.3799
 1803SOL     OW 5651   5.439   3.083   3.143 -0.1964  0.8214  0.2630
 1803SOL    HW1 5652   5.442   3.173   3.174  0.3878  0.9218 -0.0724
 1803SOL    HW2 5653   5.434   3.030   3.223  0.8752  1.0927  0.5229
 1804SOL     OW 5654   0.337   2.681   0.009  0.0131  0.0902 -0.6171
 1804SOL    HW1 5655   0.405   2.749  -0.002 -0.3996  0.3651 -1.6143
 1804SOL    HW2 5656   0.263   2.728   0.047  0.5449 -0.3221  0.9791
 1805SOL     OW 5657   5.011   6.416   3.323  0.4583  0.6352 -0.4287
 1805SOL    HW1 5658   5.023   6.423   3.229 -1.1677  3.1364 -0.5308
 1805SOL    HW2 5659   5.049   6.496   3.359  0.6606 -0.0609  1.0174
 1806SOL     OW 5660   4.452   1.101   0.967  0.0732 -0.1061  0.4450
 1806SOL    HW1 5661   4.534   1.144   0.991 -0.5658  1.1495  0.4897
 1806SOL    HW2 5662   4.405   1.167   0.915 -0.1844 -1.4096 -1.0516
 1807SOL     OW 5663   1.188   5.829   1.504 -0.1904  0.3232  0.4624
 1807SOL    HW1 5664   1.253   5.774   1.459  1.8763  1.9313  1.3114
 1807SOL    HW2 5665   1.208   5.817   1.597  0.0157  2.1108  0.6767
 1808SOL     OW 5666   3.211   3.123   0.538  0.0826 -0.1433 -0.2077
 1808SOL    HW1 5667   3.197   3.030   0.521 -2.0889  0.1519 -0.3505
 1808SOL    HW2 5668   3.266   3.126   0.616 -0.1506 -1.5520  0.0325
 1809SOL     OW 5669   3.929   1.850   1.808 -0.2576 -0.2399 -0.1227
 1809SOL    HW1 5670   3.918   1.761   1.841  0.0462 -0.2419 -0.0175
 1809SOL    HW2 5671   3.848   1.896   1.831 -0.9674 -0.8439 -1.3397
 1810SOL     OW 5672   4.602   5.652   1.260  0.4560 -0.2781 -0.1389
 1810SOL    HW1 5673   4.519   5.698   1.251 -0.6464 -1.2860  3.3077
 1810SOL    HW2 5674   4.596   5.578   1.198 -0.4653  0.5655 -1.0908
 1811SOL     OW 5675   2.471   5.577   1.496 -0.4358  0.4154 -0.0770
 1811SOL    HW1 5676   2.554   5.539   1.525 -1.1040 -0.4679  0.7436
 1811SOL    HW2 5677   2.466   5.554   1.403 -0.5180 -0.9899  0.2497
 1812SOL     OW 5678   6.176   6.864   3.023 -0.0741 -0.0140 -0.3685
 1812SOL    HW1 5679   6.194   6.772   3.006  0.5502  0.1797 -0.7703
 1812SOL    HW2 5680   6.261   6.903   3.041 -0.3062  0.5281 -0.4115
 1813SOL     OW 5681   3.852   3.703   0.082  0.0231 -0.5294 -0.2695
 1813SOL    HW1 5682   3.895   3.774   0.034 -0.8646  0.2823  0.1049
 1813SOL    HW2 5683   3.888   3.708   0.170  0.0513 -0.6224 -0.2756
 1814SOL     OW 5684   2.513   6.350   2.294 -0.5655 -0.1543 -0.1717
 1814SOL    HW1 5685   2.454   6.384   2.227  0.3208  1.3081 -0.2451
 1814SOL    HW2 5686   2.456   6.332   2.369 -1.4546 -1.1161 -1.0544
 1815SOL     OW 5687   4.093   5.056   1.393 -0.1112  0.0847 -0.1168
 1815SOL    HW1 5688   4.176   5.009   1.388 -0.6220 -1.0385  1.2823
 1815SOL    HW2 5689   4.077   5.086   1.303  1.4219 -0.3107 -0.5550
 1816SOL     OW 5690   2.980   1.589   0.225  0.6263 -0.1332  0.1657
 1816SOL    HW1 5691   2.900   1.623   0.265  0.1305 -0.7420 -0.2821
 1816SOL    HW2 5692   2.978   1.496   0.243  1.2870 -0.1393  0.2246
 1817SOL     OW 5693   4.260   2.537   2.706 -0.3225  0.5179 -0.3070
 1817SOL    HW1 5694   4.277   2.474   2.636  0.5628  0.3805  0.0244
 1817SOL    HW2 5695   4.181   2.583   2.677 -1.2647 -1.0409 -0.3428
 1818SOL     OW 5696   2.459   2.488   2.478 -0.1589 -0.0915  0.2187
 1818SOL    HW1 5697   2.476   2.482   2.572  2.0367  1.6874  0.0240
 1818SOL    HW2 5698   2.365   2.506   2.472 -0.5263 -1.1893  1.9990
 1819SOL     OW 5699   3.276   4.742   1.383 -0.4088 -0.0097  0.4144
 1819SOL    HW1 5700   3.245   4.688   1.310  0.8786 -0.7597  0.3984
 1819SOL    HW2 5701   3.220   4.820   1.380  1.0370  1.0892 -2.8113
 1820SOL     OW 5702   4.022   1.310   1.015  0.2108 -0.1400 -0.2397
 1820SOL    HW1 5703   3.969   1.364   0.956 -1.7129 -0.6048  0.9704
 1820SOL    HW2 5704   4.004   1.346   1.102 -0.6547 -2.2959  0.5380
 1821SOL     OW 5705   4.995   1.880   0.323  0.7905 -0.5253 -0.4331
 1821SOL    HW1 5706   5.036   1.944   0.380  0.0335 -0.7050  0.3315
 1821SOL    HW2 5707   5.038   1.798   0.343  1.3007 -0.3895 -0.9386
 1822SOL     OW 5708   6.036   3.875   2.055 -0.3156 -0.2387 -0.1309
 1822SOL    HW1 5709   5.958   3.865   2.110  0.0820 -2.9948  0.0608
 1822SOL    HW2 5710   6.108   3.883   2.118 -0.2216  0.2605 -0.2972
 1823SOL     OW 5711   3.927   1.551   1.968  0.4776 -0.0965 -0.2363
 1823SOL    HW1 5712   3.939   1.465   2.008  1.5009 -0.2998 -0.9323
 1823SOL    HW2 5713   3.998   1.604   2.005 -1.0924  0.9677  1.4500
 1824SOL     OW 5714   2.004   5.253   1.419  0.1327 -0.4744  0.2425
 1824SOL    HW1 5715   1.966   5.341   1.427 -1.4346 -1.2127  1.4197
 1824SOL    HW2 5716   2.055   5.243   1.499  2.7837  0.4156 -1.2140
 1825SOL     OW 5717   5.237   3.228   2.974  0.2643 -0.1893  0.0044
 1825SOL    HW1 5718   5.310   3.176   2.941  1.2101  0.7576  0.5381
 1825SOL    HW2 5719   5.261   3.249   3.064 -0.5704  0.3315  0.1206
 1826SOL     OW 5720   5.381   2.734   2.543 -0.2916 -0.2677  0.3158
 1826SOL    HW1 5721   5.364   2.645   2.511 -0.6767  0.1924 -0.7926
 1826SOL    HW2 5722   5.294   2.771   2.558 -0.1658  0.2793 -0.2547
 1827SOL     OW 5723   4.671   3.764   3.305  0.2313 -0.2654  0.5329
 1827SOL    HW1 5724   4.744   3.709   3.335  0.5213  0.9128  2.1607
 1827SOL    HW2 5725   4.610   3.703   3.264  0.8376 -1.7204  1.6893
 1828SOL     OW 5726   2.822   4.551   2.105  0.4429 -0.0597  0.0956
 1828SOL    HW1 5727   2.862   4.573   2.021 -1.6614  1.1537 -0.6634
 1828SOL    HW2 5728   2.827   4.631   2.156 -0.1264 -0.1692  0.3346
 1829SOL     OW 5729   4.809   2.012   2.684  0.1279 -0.0314  0.2230
 1829SOL    HW1 5730   4.726   2.054   2.705 -0.1221 -0.0664 -0.6606
 1829SOL    HW2 5731   4.820   2.026   2.590  0.9033 -0.4161  0.2487
 1830SOL     OW 5732   5.206   2.826   3.144  0.8215  0.4421  0.0260
 1830SOL    HW1 5733   5.185   2.800   3.234  0.8709  1.3259  0.2983
 1830SOL    HW2 5734   5.298   2.852   3.147  0.1030  3.2810  0.4070
 1831SOL     OW 5735   1.593   5.189   0.996  0.5591  0.8057 -0.1837
 1831SOL    HW1 5736   1.516   5.158   1.045  0.3233  2.9624  0.9402
 1831SOL    HW2 5737   1.663   5.129   1.022 -0.0386  0.6850  1.2784
 1832SOL     OW 5738   5.078   4.572   1.286  1.1025  0.5744 -0.5321
 1832SOL    HW1 5739   5.114   4.640   1.343  1.5712 -0.6682  0.6958
 1832SOL    HW2 5740   5.096   4.604   1.197  1.4631  1.9590  0.0053
 1833SOL     OW 5741   4.198   3.249   2.661 -0.4750 -0.0843  0.1536
 1833SOL    HW1 5742   4.233   3.185   2.599  1.9041  1.0502  0.2122
 1833SOL    HW2 5743   4.158   3.316   2.606 -1.4925 -0.7827  0.0237
 1834SOL     OW 5744   1.782   2.893   0.837  0.1372 -0.5013 -0.0807
 1834SOL    HW1 5745   1.873   2.864   0.836  0.0584 -0.8949 -2.7606
 1834SOL    HW2 5746   1.731   2.813   0.848  0.0594 -0.4456 -0.0293
 1835SOL     OW 5747   4.813   6.253   2.957 -0.5496  0.2237  0.1226
 1835SOL    HW1 5748   4.887   6.314   2.965 -1.4292  1.1146  2.3404
 1835SOL    HW2 5749   4.758   6.292   2.889 -0.0168  0.6682 -0.0699
 1836SOL     OW 5750   5.375   1.940   1.288  0.0126 -0.0799  0.4742
 1836SOL    HW1 5751   5.351   2.023   1.249 -1.0204 -0.9013 -0.6907
 1836SOL    HW2 5752   5.467   1.928   1.263  0.0240  0.4735  0.2325
 1837SOL     OW 5753   6.302   4.481   2.251 -0.1305 -0.1987  0.5954
 1837SOL    HW1 5754   6.264   4.479   2.339 -0.4493  0.2154  0.4738
 1837SOL    HW2 5755   6.228   4.501   2.194 -0.2228 -1.9280  0.0551
 1838SOL     OW 5756   3.154   5.277   2.978  0.4533 -0.3323 -0.1658
 1838SOL    HW1 5757   3.143   5.343   2.908  0.3954  0.5439  0.6470
 1838SOL    HW2 5758   3.065   5.249   2.998  0.0384  2.2422  2.1583
 1839SOL     OW 5759   2.715   5.960   2.299 -0.0268 -0.0665 -0.1282
 1839SOL    HW1 5760   2.703   6.042   2.348  2.8879 -0.3280  1.2146
 1839SOL    HW2 5761   2.728   5.988   2.208  1.9505  1.1120  0.4655
 1840SOL     OW 5762   4.231   1.801   2.278 -0.4916  0.0811 -0.0959
 1840SOL    HW1 5763   4.287   1.864   2.233 -0.2916 -0.7172 -0.9860
 1840SOL    HW2 5764   4.280   1.777   2.357 -0.1928  0.4005 -0.1816
 1841SOL     OW 5765   1.135   1.538   0.454  0.2874 -0.4189 -0.4741
 1841SOL    HW1 5766   1.067   1.599   0.482  0.1026 -0.8565  0.0479
 1841SOL    HW2 5767   1.111   1.455   0.495 -0.3021 -1.2440 -2.3769
 1842SOL     OW 5768   1.236   0.893   1.119 -0.1068  0.4470  0.2878
 1842SOL    HW1 5769   1.251   0.897   1.214  2.8571 -1.0304 -0.0189
 1842SOL    HW2 5770   1.206   0.803   1.103 -1.5061  0.9548 -0.1365
 1843SOL     OW 5771   1.083   2.682   0.522 -0.3490 -0.5275  0.0101
 1843SOL    HW1 5772   1.033   2.763   0.534  0.3448 -0.1579  0.4852
 1843SOL    HW2 5773   1.132   2.672   0.604  2.1665  0.3998 -1.2488
 1844SOL     OW 5774   3.962   6.098   2.087 -0.2969 -0.4303 -0.1436
 1844SOL    HW1 5775   3.964   6.068   2.178 -2.9481 -2.6116 -0.6788
 1844SOL    HW2 5776   4.019   6.037   2.040  0.8998  0.5648 -0.0357
 1845SOL     OW 5777   3.967   2.139   2.522  0.5039 -0.3939  0.0533
 1845SOL    HW1 5778   3.895   2.141   2.585  0.6011  0.3347  0.1482
 1845SOL    HW2 5779   3.978   2.046   2.501 -1.2614 -0.4274 -0.9023
 1846SOL     OW 5780   4.594   4.183   1.513 -0.2255  1.0863 -0.2896
 1846SOL    HW1 5781   4.567   4.098   1.548 -0.6897  0.7531 -1.4136
 1846SOL    HW2 5782   4.690   4.180   1.514 -0.2086  1.2709  1.3382
 1847SOL     OW 5783   4.446   5.705   3.339 -0.0101  0.6837 -0.3382
 1847SOL    HW1 5784   4.504   5.680   3.268 -0.7310  0.5061 -0.8769
 1847SOL    HW2 5785   4.439   5.627   3.394  1.5171  1.1925  0.6192
 1848SOL     OW 5786   1.041   5.480   1.049  0.0338 -0.7686 -1.0135
 1848SOL    HW1 5787   1.012   5.527   1.127  1.4618 -1.7704  0.1660
 1848SOL    HW2 5788   0.959   5.449   1.010 -0.9060  1.9554 -1.4416
 1849SOL     OW 5789   6.829   4.094   3.140 -0.4152  0.2232  0.5701
 1849SOL    HW1 5790   6.754   4.119   3.087 -0.7682 -4.4820 -1.6318
 1849SOL    HW2 5791   6.796   4.090   3.230 -2.0982  0.6247 -0.0111
 1850SOL     OW 5792   5.133   2.880   1.492 -0.2217  0.3588 -0.2239
 1850SOL    HW1 5793   5.165   2.842   1.574 -0.7498 -0.3770 -0.3514
 1850SOL    HW2 5794   5.039   2.893   1.507 -0.1965  0.8653 -0.4718
 1851SOL     OW 5795   1.934   3.416   1.638 -0.0281  0.1060  0.4050
 1851SOL    HW1 5796   1.889   3.449   1.716  1.6573  1.3017  0.9357
 1851SOL    HW2 5797   1.883   3.449   1.565 -2.1636 -1.7961  0.9337
 1852SOL     OW 5798   3.529   0.418   0.319 -0.1135 -0.5936  0.1350
 1852SOL    HW1 5799   3.474   0.435   0.242 -0.4258  0.1209  0.5030
 1852SOL    HW2 5800   3.576   0.337   0.298  0.2432 -0.1031 -1.0524
 1853SOL     OW 5801   3.307   5.015   1.837 -0.1039 -0.2343  0.1305
 1853SOL    HW1 5802   3.254   4.984   1.911  0.8962  0.1221  1.0214
 1853SOL    HW2 5803   3.373   4.947   1.825  0.0555 -0.0405 -0.0949
 1854SOL     OW 5804   5.630   5.363   2.817 -0.0105 -0.0971  0.1560
 1854SOL    HW1 5805   5.604   5.362   2.725  0.4911 -2.5587 -0.0401
 1854SOL    HW2 5806   5.726   5.370   2.814  0.1009 -1.2916  0.4075
 1855SOL     OW 5807   1.908   6.526   2.615 -0.1320 -0.3677 -0.4060
 1855SOL    HW1 5808   1.897   6.620   2.624  0.5907 -0.3721  0.7752
 1855SOL    HW2 5809   1.824   6.494   2.582 -0.5511  0.6276 -0.3255
 1856SOL     OW 5810   4.185   4.110   2.366 -0.1542 -0.7610 -0.5861
 1856SOL    HW1 5811   4.276   4.087   2.386 -0.4036 -2.0837 -0.8940
 1856SOL    HW2 5812   4.157   4.043   2.303 -0.7215  0.8017 -2.0750
 1857SOL     OW 5813   4.140   3.809   2.580 -0.0665  0.1243  0.1298
 1857SOL    HW1 5814   4.045   3.802   2.591 -0.1600 -1.5565 -1.2381
 1857SOL    HW2 5815   4.154   3.896   2.542 -0.7583  1.4174  2.6550
 1858SOL     OW 5816   2.842   5.432   2.848 -0.5541  0.0979 -0.3153
 1858SOL    HW1 5817   2.814   5.399   2.934 -1.9091  2.2278  0.1493
 1858SOL    HW2 5818   2.924   5.478   2.866  0.0096 -0.8271 -0.4851
 1859SOL     OW 5819   3.592   1.432   1.385 -0.4218  0.1410 -0.8053
 1859SOL    HW1 5820   3.637   1.502   1.434  0.5623 -1.5109  0.7562
 1859SOL    HW2 5821   3.640   1.426   1.303  0.3588  0.3902 -0.3752
 1860SOL     OW 5822   1.859   4.210   1.228 -0.1535  0.7371  0.2266
 1860SOL    HW1 5823   1.949   4.227   1.199  0.1835 -0.7996  0.2861
 1860SOL    HW2 5824   1.869   4.168   1.313 -0.8157 -1.1740 -0.5948
 1861SOL     OW 5825   5.071   4.303   1.602 -0.5523 -1.0782  0.2336
 1861SOL    HW1 5826   5.043   4.392   1.622  2.1966  0.1383 -0.9290
 1861SOL    HW2 5827   4.991   4.260   1.571 -1.7474  1.2587 -0.1593
 1862SOL     OW 5828   0.912   3.076   0.299 -0.2926 -0.6032 -0.2802
 1862SOL    HW1 5829   0.836   3.106   0.349 -0.2624 -0.4031 -0.3525
 1862SOL    HW2 5830   0.925   3.143   0.232  0.7356  0.0651  0.5404
 1863SOL     OW 5831   3.946   4.765   2.635 -0.4914  0.2524  0.2381
 1863SOL    HW1 5832   3.884   4.836   2.646  0.0131  0.5548  1.2289
 1863SOL    HW2 5833   3.988   4.782   2.551 -1.3041  0.3782 -0.1499
 1864SOL     OW 5834   4.581   5.224   2.727  0.0716 -0.8259  0.0799
 1864SOL    HW1 5835   4.671   5.230   2.695  0.0078  1.0956  0.1188
 1864SOL    HW2 5836   4.532   5.187   2.653  0.4742  0.5571 -0.9230
 1865SOL     OW 5837   4.547   5.100   1.793 -0.2137 -0.1912  0.0564
 1865SOL    HW1 5838   4.584   5.046   1.724 -1.9329 -1.4919  0.0928
 1865SOL    HW2 5839   4.545   5.188   1.755 -2.2733 -1.0569 -2.1275
 1866SOL     OW 5840   6.338   2.655   3.292 -0.4947 -0.2150  0.3358
 1866SOL    HW1 5841   6.393   2.599   3.347  0.9233  1.4463  0.7055
 1866SOL    HW2 5842   6.329   2.736   3.342  0.6427  1.2594 -1.7380
 1867SOL     OW 5843   2.754   4.860   3.206 -0.0275 -0.3872 -0.1736
 1867SOL    HW1 5844   2.751   4.930   3.270 -0.4830 -0.6722  0.1232
 1867SOL    HW2 5845   2.847   4.838   3.198  0.1915  0.7118 -0.7863
 1868SOL     OW 5846   4.877   5.353   1.240 -0.2939 -0.3849 -0.2299
 1868SOL    HW1 5847   4.957   5.396   1.208 -0.1585  0.8973  1.6635
 1868SOL    HW2 5848   4.891   5.345   1.334 -2.8013  0.7704  0.3003
 1869SOL     OW 5849   2.041   3.741   0.900 -0.5256  0.1201 -0.3153
 1869SOL    HW1 5850   1.971   3.796   0.865 -0.6330 -0.7338 -1.5129
 1869SOL    HW2 5851   2.097   3.723   0.825  0.9113  0.6688  0.5968
 1870SOL     OW 5852   0.748   3.153   0.554 -0.7682 -0.2371 -0.5442
 1870SOL    HW1 5853   0.670   3.165   0.608 -1.2912 -0.1369 -1.3048
 1870SOL    HW2 5854   0.776   3.243   0.533  0.1129 -0.2451  0.4904
 1871SOL     OW 5855   2.182   3.192   1.467  0.2925  0.3677  0.2866
 1871SOL    HW1 5856   2.186   3.277   1.510  0.9047  0.9193 -0.8056
 1871SOL    HW2 5857   2.242   3.137   1.516  0.1097  0.6439  0.8297
 1872SOL     OW 5858   2.525   4.898   1.041  0.0024 -0.1755  0.3944
 1872SOL    HW1 5859   2.477   4.893   0.958 -1.2128 -0.3302  1.0806
 1872SOL    HW2 5860   2.608   4.855   1.023 -0.6720 -1.1787 -0.4605
 1873SOL     OW 5861   3.240   5.580   1.174 -0.3517  0.1720 -0.1362
 1873SOL    HW1 5862   3.222   5.511   1.110 -0.2046 -0.0538  0.0663
 1873SOL    HW2 5863   3.156   5.624   1.186 -0.0993  1.1052 -1.5210
 1874SOL     OW 5864   4.184   6.346   2.714 -0.0776 -0.0607 -0.2094
 1874SOL    HW1 5865   4.250   6.361   2.782 -0.8651  0.8851  0.3863
 1874SOL    HW2 5866   4.234   6.328   2.635  0.8955  0.5072  0.2567
 1875SOL     OW 5867   2.273   3.904   0.318  0.2090  0.0368  0.2405
 1875SOL    HW1 5868   2.357   3.945   0.299 -0.2953  0.9384 -0.1273
 1875SOL    HW2 5869   2.231   3.895   0.233 -1.1012  1.9347  0.6238
 1876SOL     OW 5870   2.000   0.927   0.347 -0.4207  0.5436  0.2712
 1876SOL    HW1 5871   1.906   0.920   0.331 -0.7301  0.1504  2.1024
 1876SOL    HW2 5872   2.039   0.926   0.259 -1.8826 -2.5563 -0.4676
 1877SOL     OW 5873   4.277   5.043   3.055  0.2192 -0.0993  0.4561
 1877SOL    HW1 5874   4.309   4.954   3.069  1.3182  0.0053 -1.1147
 1877SOL    HW2 5875   4.343   5.099   3.096  0.3320  0.0293  0.1007
 1878SOL     OW 5876   4.548   4.118   1.031  0.0057 -0.0282  0.1890
 1878SOL    HW1 5877   4.502   4.151   0.954  1.0858 -1.1683 -0.9975
 1878SOL    HW2 5878   4.488   4.053   1.068  0.2526 -0.8785 -0.8403
 1879SOL     OW 5879   4.458   6.488   3.277 -0.7548  0.0420 -0.3296
 1879SOL    HW1 5880   4.445   6.568   3.327  0.7517  1.0704 -1.5145
 1879SOL    HW2 5881   4.528   6.509   3.215 -0.8697 -1.9461 -1.2039
 1880SOL     OW 5882   5.954   1.738   2.468  0.0321 -0.2885  1.0808
 1880SOL    HW1 5883   5.921   1.811   2.416  0.5877 -0.7672  0.0381
 1880SOL    HW2 5884   5.876   1.701   2.509 -0.3847  0.2212  0.7629
 1881SOL     OW 5885   2.655   1.055   1.025 -0.1861 -0.4933  0.2649
 1881SOL    HW1 5886   2.608   1.129   0.986 -2.3335 -1.2933  1.1664
 1881SOL    HW2 5887   2.716   1.027   0.958 -0.8014  0.8063 -0.8851
 1882SOL     OW 5888   2.944   1.979   2.060 -0.2356 -0.6685  0.4131
 1882SOL    HW1 5889   2.944   2.017   1.972 -0.2500 -3.3417 -0.8206
 1882SOL    HW2 5890   3.023   2.014   2.101 -0.4850  1.0188 -0.4183
 1883SOL     OW 5891   2.314   1.349   1.200  0.2068  0.3486  0.1993
 1883SOL    HW1 5892   2.389   1.404   1.176  0.8214  0.5236  2.3590
 1883SOL    HW2 5893   2.312   1.351   1.295 -3.0971  1.0358  0.2229
 1884SOL     OW 5894   1.059   3.310   0.493 -0.5366 -0.3193 -0.1618
 1884SOL    HW1 5895   1.064   3.231   0.439  0.6512  0.6072 -1.4843
 1884SOL    HW2 5896   0.975   3.350   0.470  0.2478  0.4213 -1.9298
 1885SOL     OW 5897   5.881   5.019   2.429  0.1174 -0.4445  0.0148
 1885SOL    HW1 5898   5.874   5.085   2.498  1.6548  1.5093 -1.5622
 1885SOL    HW2 5899   5.968   4.981   2.441  0.3720 -0.1341 -0.7962
 1886SOL     OW 5900   4.857   0.698   0.824 -0.0031 -0.3703  0.2163
 1886SOL    HW1 5901   4.951   0.701   0.805 -0.0125  0.5005  0.2804
 1886SOL    HW2 5902   4.834   0.789   0.844 -0.1335 -1.0544  3.8157
 1887SOL     OW 5903   3.551   2.866   2.134 -0.1363 -0.0617 -0.4162
 1887SOL    HW1 5904   3.542   2.907   2.047  1.3335  0.2351 -0.4583
 1887SOL    HW2 5905   3.466   2.825   2.150 -0.0848 -1.1406 -2.5143
 1888SOL     OW 5906   1.662   2.650   0.894  0.3956 -0.1142 -0.3747
 1888SOL    HW1 5907   1.586   2.616   0.847  0.0063  0.6584 -0.3233
 1888SOL    HW2 5908   1.702   2.573   0.934  0.0667 -0.6270 -1.0105
 1889SOL     OW 5909   6.742   4.533   2.836 -0.2972 -0.1054  0.4660
 1889SOL    HW1 5910   6.727   4.479   2.758 -1.0462 -0.4910  0.8634
 1889SOL    HW2 5911   6.698   4.486   2.906 -0.4692  0.7344  0.9331
 1890SOL     OW 5912   1.456   4.721   0.275 -0.0433 -0.1374  0.1907
 1890SOL    HW1 5913   1.379   4.751   0.324 -0.6522 -1.6094  0.1717
 1890SOL    HW2 5914   1.420   4.675   0.199  0.7481 -2.8573  1.3574
 1891SOL     OW 5915   1.302   4.879   0.824 -0.1727 -0.6100  0.2505
 1891SOL    HW1 5916   1.273   4.827   0.749  1.5926 -1.6399  0.2139
 1891SOL    HW2 5917   1.398   4.879   0.817 -0.0505  3.4718 -0.2817
 1892SOL     OW 5918   2.169   1.673   0.840  0.6246 -0.3917 -0.5903
 1892SOL    HW1 5919   2.201   1.734   0.773 -0.4884  0.6348 -0.2378
 1892SOL    HW2 5920   2.154   1.591   0.793 -1.1969  0.6084 -1.9007
 1893SOL     OW 5921   2.203   2.895   2.033 -0.0010 -0.3757  0.5484
 1893SOL    HW1 5922   2.207   2.959   2.104  2.9562  0.2440 -0.0380
 1893SOL    HW2 5923   2.265   2.826   2.059 -1.2180 -1.7431 -0.0272
 1894SOL     OW 5924   4.866   3.349   3.033 -0.3262  0.1780  0.3995
 1894SOL    HW1 5925   4.916   3.411   2.980 -1.1109  1.9574  1.6654
 1894SOL    HW2 5926   4.827   3.290   2.969 -0.2421  1.4970 -0.9340
 1895SOL     OW 5927   4.122   5.941   1.928 -0.5082  0.6602  0.2206
 1895SOL    HW1 5928   4.189   6.009   1.934 -0.3502  0.5274 -0.0576
 1895SOL    HW2 5929   4.079   5.956   1.844 -0.5412  0.4776  0.2034
 1896SOL     OW 5930   2.723   3.564   3.402 -0.0329 -0.1372 -0.5614
 1896SOL    HW1 5931   2.743   3.615   3.324  1.4762 -0.7778 -0.6200
 1896SOL    HW2 5932   2.758   3.477   3.384  0.9425 -0.1245  1.0715
 1897SOL     OW 5933   5.297   5.751   1.616  0.7688 -0.3963 -0.0340
 1897SOL    HW1 5934   5.287   5.693   1.540  0.1005 -2.6270  1.6465
 1897SOL    HW2 5935   5.356   5.704   1.674 -0.8277 -0.0674  1.9732
 1898SOL     OW 5936   4.542   0.937   0.583 -0.2422  0.0871 -0.3238
 1898SOL    HW1 5937   4.478   0.896   0.525 -0.2992 -0.9062  0.4117
 1898SOL    HW2 5938   4.565   0.868   0.645  0.8651  0.7082 -0.0242
 1899SOL     OW 5939   5.944   4.011   1.818  0.1659 -0.4952 -0.2265
 1899SOL    HW1 5940   5.960   3.946   1.887  1.0858 -0.0680 -0.0193
 1899SOL    HW2 5941   5.953   4.095   1.863  0.1696 -0.2188 -0.7479
 1900SOL     OW 5942   5.822   4.725   3.205 -0.8957  0.2066  0.5676
 1900SOL    HW1 5943   5.852   4.668   3.276 -0.7499 -1.9894 -1.1654
 1900SOL    HW2 5944   5.735   4.753   3.232 -0.5247  0.1182  1.9718
 1901SOL     OW 5945   6.086   4.776   2.295  0.1623 -0.3916  0.0882
 1901SOL    HW1 5946   6.038   4.752   2.374 -0.5270 -0.4800 -0.3446
 1901SOL    HW2 5947   6.178   4.776   2.322  0.1294 -2.4075  0.4172
 1902SOL     OW 5948   1.707   2.158   0.402 -0.2608 -0.1064  0.6878
 1902SOL    HW1 5949   1.715   2.253   0.399 -0.6465 -0.0774 -2.3558
 1902SOL    HW2 5950   1.768   2.126   0.335  0.4277 -2.0726  2.1572
 1903SOL     OW 5951   1.356   5.323   1.462 -0.3594  0.1229  0.4310
 1903SOL    HW1 5952   1.279   5.349   1.411 -0.2591  0.7125  0.5755
 1903SOL    HW2 5953   1.406   5.267   1.402  0.0467  1.2671 -0.3405
 1904SOL     OW 5954   4.082   2.831   1.959 -0.3889 -0.2536  1.0384
 1904SOL    HW1 5955   4.159   2.855   1.908 -0.7111  0.6328  0.9506
 1904SOL    HW2 5956   4.051   2.750   1.918 -1.4795  1.1637 -1.1516
 1905SOL     OW 5957   2.882   4.010   3.345 -0.0897  0.0460  0.6438
 1905SOL    HW1 5958   2.865   4.061   3.265  0.0687  1.6762  1.6062
 1905SOL    HW2 5959   2.960   4.051   3.383 -0.5987 -0.2091  2.0191
 1906SOL     OW 5960   4.600   4.548   3.309  0.4439  0.1856 -0.0962
 1906SOL    HW1 5961   4.609   4.465   3.354 -0.5754 -1.0729 -2.0591
 1906SOL    HW2 5962   4.506   4.556   3.292  0.6514  1.2123 -0.8603
 1907SOL     OW 5963   7.028   3.545   3.355 -0.2840  0.1333 -0.2001
 1907SOL    HW1 5964   7.047   3.487   3.282 -1.4445 -0.8954  0.2847
 1907SOL    HW2 5965   6.996   3.487   3.425  0.4823  1.1182  1.0176
 1908SOL     OW 5966   0.706   1.222   0.311 -0.6954 -0.0374  0.4649
 1908SOL    HW1 5967   0.644   1.150   0.313 -0.9479  0.0951 -1.1370
 1908SOL    HW2 5968   0.657   1.295   0.272  0.5861 -0.1012 -1.4088
 1909SOL     OW 5969   4.607   2.492   2.343 -0.3830 -0.3227 -0.3247
 1909SOL    HW1 5970   4.521   2.452   2.340 -1.3883  1.3092  2.6026
 1909SOL    HW2 5971   4.596   2.576   2.298 -0.4948  0.0596  0.3863
 1910SOL     OW 5972   2.314   1.272   0.607  0.2087  0.7013 -0.5181
 1910SOL    HW1 5973   2.256   1.197   0.621 -0.4227  1.3592  0.5346
 1910SOL    HW2 5974   2.402   1.234   0.610 -0.0623  0.0901  0.8996
 1911SOL     OW 5975   1.643   1.620   1.424  0.3748 -0.4187 -0.0104
 1911SOL    HW1 5976   1.670   1.677   1.496  2.2641 -0.6429 -0.5000
 1911SOL    HW2 5977   1.577   1.671   1.377 -0.4580 -0.0281  1.4971
 1912SOL     OW 5978   5.364   3.317   2.112 -0.0536  0.3951 -0.1703
 1912SOL    HW1 5979   5.316   3.388   2.154 -2.9948 -0.9335 -1.0004
 1912SOL    HW2 5980   5.360   3.245   2.176  2.6262  0.7865  0.5442
 1913SOL     OW 5981   3.508   3.775   2.765 -0.8899 -0.1396 -0.2298
 1913SOL    HW1 5982   3.507   3.822   2.848  0.8454  0.3155 -0.4299
 1913SOL    HW2 5983   3.424   3.729   2.763 -1.0286 -0.0693  1.7115
 1914SOL     OW 5984   1.668   5.528   1.897 -0.1099  0.1448  0.0643
 1914SOL    HW1 5985   1.704   5.616   1.903 -1.5675  0.9704 -2.0925
 1914SOL    HW2 5986   1.591   5.529   1.953  0.5183 -0.1601  0.9602
 1915SOL     OW 5987   4.490   3.262   0.151 -0.0085  0.2399 -0.3908
 1915SOL    HW1 5988   4.528   3.349   0.139 -0.0080  0.0685 -1.8153
 1915SOL    HW2 5989   4.500   3.244   0.244 -1.2148  2.3058  0.1816
 1916SOL     OW 5990   5.594   4.298   1.972  0.4475  0.2448 -0.0849
 1916SOL    HW1 5991   5.670   4.343   1.936  1.0768  0.9308  1.9661
 1916SOL    HW2 5992   5.535   4.368   2.002 -0.0330 -0.2779  0.2343
 1917SOL     OW 5993   5.227   0.940   0.963 -0.3174  0.2328 -0.2573
 1917SOL    HW1 5994   5.189   0.867   0.915  0.9173 -0.5534 -0.0812
 1917SOL    HW2 5995   5.182   0.939   1.048 -2.0047  1.1959 -1.0920
 1918SOL     OW 5996   2.319   1.868   0.725 -0.3820  0.0616  0.2888
 1918SOL    HW1 5997   2.397   1.910   0.689  1.1890 -2.3658  0.5968
 1918SOL    HW2 5998   2.306   1.909   0.810 -0.5990  1.7845 -0.5440
 1919SOL     OW 5999   1.552   0.756   0.663 -0.2962 -0.5763 -0.2170
 1919SOL    HW1 6000   1.523   0.669   0.687  0.9935 -0.6631  1.1857
 1919SOL    HW2 6001   1.632   0.742   0.612  0.1249 -0.2176  0.3315
 1920SOL     OW 6002   5.034   3.991   1.081 -0.0938 -0.2448 -0.6679
 1920SOL    HW1 6003   4.946   4.027   1.082 -0.0256 -0.0016 -1.8434
 1920SOL    HW2 6004   5.064   4.002   0.991  1.1447 -0.3126 -0.2919
 1921SOL     OW 6005   2.681   3.973   0.497  0.4355 -0.1886  0.3026
 1921SOL    HW1 6006   2.687   4.030   0.420 -1.4401  0.7993  0.8221
 1921SOL    HW2 6007   2.680   3.885   0.461 -1.4238  0.2708 -0.9687
 1922SOL     OW 6008   2.663   6.574   3.320  0.0733  0.7259  0.1630
 1922SOL    HW1 6009   2.750   6.601   3.292 -0.4522  2.4708  0.0959
 1922SOL    HW2 6010   2.673   6.556   3.414  0.7088 -0.1162 -0.0508
 1923SOL     OW 6011   1.718   5.193   1.575  0.1884 -0.1688 -0.3700
 1923SOL    HW1 6012   1.652   5.258   1.551 -0.5616 -0.8464 -0.1861
 1923SOL    HW2 6013   1.707   5.181   1.669  0.6829 -0.1773 -0.3089
 1924SOL     OW 6014   2.653   2.548   3.112 -0.3590  0.4161  0.4171
 1924SOL    HW1 6015   2.689   2.515   3.030 -3.0411 -1.4379 -0.1568
 1924SOL    HW2 6016   2.635   2.641   3.095  1.3421  0.6505 -0.2204
 1925SOL     OW 6017   2.334   1.482   0.262 -0.4288 -0.4127  0.5350
 1925SOL    HW1 6018   2.301   1.398   0.230 -0.2449 -0.5054  0.5857
 1925SOL    HW2 6019   2.277   1.503   0.336 -1.3212  0.1623 -0.2903
 1926SOL     OW 6020   5.417   3.955   2.574 -0.0901 -0.1049 -0.3931
 1926SOL    HW1 6021   5.476   3.943   2.499  0.0256 -0.9871 -0.1776
 1926SOL    HW2 6022   5.466   4.009   2.635  0.5365 -0.8744 -0.1934
 1927SOL     OW 6023   5.049   3.584   1.475 -0.0439 -0.0031 -0.0595
 1927SOL    HW1 6024   4.985   3.594   1.545 -1.9493 -2.1937 -1.3402
 1927SOL    HW2 6025   5.125   3.544   1.517 -0.4367  0.4178  1.0738
 1928SOL     OW 6026   3.273   4.666   0.590  0.3349 -0.1258 -0.2046
 1928SOL    HW1 6027   3.231   4.750   0.573 -0.8396 -0.8121 -0.8100
 1928SOL    HW2 6028   3.270   4.619   0.506  0.9763 -0.7760  0.1162
 1929SOL     OW 6029   5.781   1.303   1.890 -0.6553 -0.1393 -0.6187
 1929SOL    HW1 6030   5.754   1.297   1.798 -0.5525 -1.1351 -0.5879
 1929SOL    HW2 6031   5.860   1.356   1.888 -0.0552 -1.0292 -1.2360
 1930SOL     OW 6032   3.034   3.563   3.276  0.3884 -0.3724 -0.2441
 1930SOL    HW1 6033   2.950   3.609   3.270 -0.5273 -2.2466 -3.7175
 1930SOL    HW2 6034   3.030   3.519   3.361 -1.0819  1.4192  0.7051
 1931SOL     OW 6035   5.652   5.667   1.584  0.9996 -0.1450  0.8086
 1931SOL    HW1 6036   5.657   5.739   1.521  0.3909 -1.3555 -0.6966
 1931SOL    HW2 6037   5.743   5.643   1.600  1.3481  2.0930  2.7963
 1932SOL     OW 6038   5.047   3.952   1.368 -0.2685 -1.0155 -0.1274
 1932SOL    HW1 6039   4.956   3.926   1.353  0.0438 -1.9384 -0.5347
 1932SOL    HW2 6040   5.076   3.984   1.282  0.1712 -2.0008 -0.3713
 1933SOL     OW 6041   3.831   2.004   2.030 -0.5554  0.1548 -0.2917
 1933SOL    HW1 6042   3.804   1.918   2.064 -0.4436  0.4937  0.6939
 1933SOL    HW2 6043   3.916   2.020   2.072 -0.1404  0.3358 -1.1971
 1934SOL     OW 6044   6.600   2.449   2.604 -0.2237 -0.1294  0.9825
 1934SOL    HW1 6045   6.584   2.418   2.693 -2.1213  1.3212  1.2006
 1934SOL    HW2 6046   6.514   2.470   2.569  0.5160 -0.2618 -1.0681
 1935SOL     OW 6047   3.712   2.111   0.765 -0.2777 -0.2127  0.2389
 1935SOL    HW1 6048   3.729   2.105   0.859 -0.9180 -1.9764  0.2896
 1935SOL    HW2 6049   3.646   2.044   0.748 -1.0655  0.8709 -1.2902
 1936SOL     OW 6050   3.267   5.975   2.928 -0.2436 -0.3209  0.0270
 1936SOL    HW1 6051   3.304   6.062   2.942 -0.7454 -0.1392  0.2666
 1936SOL    HW2 6052   3.330   5.915   2.968 -1.6023  0.1639  3.2938
 1937SOL     OW 6053   0.936   4.127   0.749 -0.3277  0.1199 -0.4867
 1937SOL    HW1 6054   0.931   4.222   0.758  0.9105  0.4336 -2.5075
 1937SOL    HW2 6055   1.001   4.100   0.813 -0.3486  0.6973 -0.2195
 1938SOL     OW 6056   2.976   2.296   0.798  0.5177  0.3301  0.7506
 1938SOL    HW1 6057   3.061   2.252   0.803  0.6320  0.4683  0.0270
 1938SOL    HW2 6058   2.912   2.225   0.792  0.6806  0.2531 -0.0913
 1939SOL     OW 6059   6.028   5.797   1.778 -0.0293 -0.0680 -0.5333
 1939SOL    HW1 6060   6.068   5.844   1.851 -0.0049 -0.6461 -0.1701
 1939SOL    HW2 6061   5.973   5.731   1.819  0.5404 -0.8725 -1.0261
 1940SOL     OW 6062   6.392   4.963   2.601 -0.2110 -0.6779  0.2844
 1940SOL    HW1 6063   6.437   4.929   2.678 -1.9170  0.4519  1.8581
 1940SOL    HW2 6064   6.415   5.056   2.600 -0.3382 -0.6478 -0.5010
 1941SOL     OW 6065   5.020   5.775   2.760  0.1749 -0.1325 -0.2751
 1941SOL    HW1 6066   5.024   5.735   2.674  0.7476  1.9794 -1.3007
 1941SOL    HW2 6067   5.063   5.860   2.749 -0.1168  0.3748  1.9881
 1942SOL     OW 6068   2.673   3.682   0.627  0.3397 -0.0326 -0.3359
 1942SOL    HW1 6069   2.761   3.718   0.634  0.0699  0.5257  0.2544
 1942SOL    HW2 6070   2.686   3.594   0.591  1.3187 -0.7643  1.6689
 1943SOL     OW 6071   5.209   5.386   1.542  0.3776  0.0335 -0.5430
 1943SOL    HW1 6072   5.118   5.414   1.543  0.0017 -1.0448 -1.6883
 1943SOL    HW2 6073   5.259   5.467   1.541 -0.5265  0.6475  0.8026
 1944SOL     OW 6074   4.877   5.542   2.120 -0.1211 -0.2249 -0.0034
 1944SOL    HW1 6075   4.850   5.599   2.048  3.5955  0.7995 -0.7913
 1944SOL    HW2 6076   4.877   5.454   2.082 -0.2985  0.0190 -0.5732
 1945SOL     OW 6077   2.031   5.048   1.008  0.2388 -0.4843 -0.0686
 1945SOL    HW1 6078   2.006   5.055   1.100  1.4636  0.3743  0.2268
 1945SOL    HW2 6079   2.011   4.958   0.984 -0.1061 -0.7151  1.0326
 1946SOL     OW 6080   2.664   1.893   0.317  0.1399 -0.1288  0.6959
 1946SOL    HW1 6081   2.578   1.933   0.337 -0.7067 -1.3113 -0.4748
 1946SOL    HW2 6082   2.725   1.942   0.373 -1.2638  0.8222  1.4912
 1947SOL     OW 6083   6.086   3.335   2.880  0.1699  0.4295 -0.1554
 1947SOL    HW1 6084   6.054   3.417   2.843  0.8391  0.8646  0.2014
 1947SOL    HW2 6085   6.181   3.341   2.873  0.2274 -0.3403 -0.1629
 1948SOL     OW 6086   5.345   4.024   0.972  0.4649  0.2183 -0.4712
 1948SOL    HW1 6087   5.389   3.943   0.998  1.2783  0.4348 -1.1012
 1948SOL    HW2 6088   5.372   4.088   1.038  0.5492  0.1845 -0.4724
 1949SOL     OW 6089   0.852   3.432   0.901 -0.0550  0.1159  0.0724
 1949SOL    HW1 6090   0.835   3.362   0.964  0.0411 -0.1869 -0.2339
 1949SOL    HW2 6091   0.766   3.472   0.887 -0.4988 -1.1800 -1.1950
 1950SOL     OW 6092   5.361   4.092   2.031  0.0330 -0.0297 -0.0536
 1950SOL    HW1 6093   5.322   4.099   1.944 -1.5952  2.8391  0.7644
 1950SOL    HW2 6094   5.450   4.125   2.021 -0.5017  1.3379 -0.4762
 1951SOL     OW 6095   4.334   2.210   0.443 -0.3295  0.4188 -0.1787
 1951SOL    HW1 6096   4.257   2.248   0.401  0.4016  1.3345 -0.7153
 1951SOL    HW2 6097   4.393   2.191   0.371  0.3376  0.6236  0.3116
 1952SOL     OW 6098   4.615   5.821   1.634  0.2445 -0.7422  0.3572
 1952SOL    HW1 6099   4.552   5.832   1.562 -0.5738 -0.6601  1.0719
 1952SOL    HW2 6100   4.616   5.907   1.677 -1.5354 -1.5924  2.2443
 1953SOL     OW 6101   1.462   2.748   0.281 -0.5660  0.0558  0.5289
 1953SOL    HW1 6102   1.418   2.818   0.232  1.9987  0.8844 -0.8414
 1953SOL    HW2 6103   1.396   2.680   0.293 -2.4525  1.6450 -0.3736
 1954SOL     OW 6104   3.105   2.706   2.719  0.2365  0.6607 -0.4135
 1954SOL    HW1 6105   3.015   2.733   2.735  0.2033 -0.5884  1.9127
 1954SOL    HW2 6106   3.103   2.611   2.729  1.4570  0.3715 -2.4109
 1955SOL     OW 6107   2.431   5.338   0.875  0.2849  0.2114 -0.0076
 1955SOL    HW1 6108   2.411   5.405   0.940 -0.7038 -1.3600  1.4181
 1955SOL    HW2 6109   2.478   5.271   0.925 -1.5355 -1.5794 -0.5595
 1956SOL     OW 6110   4.792   4.735   0.259  0.0399  0.3223 -0.6743
 1956SOL    HW1 6111   4.747   4.664   0.212 -0.5510  2.0877 -2.9961
 1956SOL    HW2 6112   4.722   4.779   0.308  0.3199 -0.3799  0.3786
 1957SOL     OW 6113   2.955   3.186   2.981 -0.4714 -0.3169  0.2881
 1957SOL    HW1 6114   2.910   3.109   3.017 -0.0401 -0.5686  0.2883
 1957SOL    HW2 6115   3.015   3.213   3.050 -0.3054 -0.2435  0.1129
 1958SOL     OW 6116   4.359   4.373   2.409  0.3666  0.2812  0.0580
 1958SOL    HW1 6117   4.394   4.379   2.321 -2.4705 -0.1706 -1.2135
 1958SOL    HW2 6118   4.356   4.279   2.428 -2.5912  0.0434 -1.0567
 1959SOL     OW 6119   0.205   3.322   0.320  0.0839  0.6405 -0.0411
 1959SOL    HW1 6120   0.189   3.277   0.237  2.6050  0.6798 -0.6269
 1959SOL    HW2 6121   0.300   3.323   0.328 -0.0947  0.5980  2.9024
 1960SOL     OW 6122   5.833   2.037   2.348 -0.3168  0.3768 -0.0754
 1960SOL    HW1 6123   5.777   2.068   2.419  1.2645 -1.1785  1.9785
 1960SOL    HW2 6124   5.887   2.112   2.325 -2.5471  1.6613 -1.5392
 1961SOL     OW 6125   1.073   3.162   0.778 -0.0709  0.1626  0.7931
 1961SOL    HW1 6126   1.069   3.200   0.690  2.2383 -0.8562  0.1745
 1961SOL    HW2 6127   1.125   3.224   0.828  0.2134 -0.1819  0.9229
 1962SOL     OW 6128   4.548   3.184   0.427 -0.1574 -0.0418  0.2614
 1962SOL    HW1 6129   4.627   3.134   0.405  0.3722  0.6265  0.6077
 1962SOL    HW2 6130   4.509   3.135   0.499  1.0474  0.7011  1.4596
 1963SOL     OW 6131   6.020   4.465   1.742  0.1218 -0.6276 -0.1115
 1963SOL    HW1 6132   5.988   4.478   1.653  1.7972  0.4692 -0.6209
 1963SOL    HW2 6133   5.991   4.543   1.790 -1.0088 -1.3408  0.4080
 1964SOL     OW 6134   4.424   4.208   0.278  0.1289  0.3379 -0.4790
 1964SOL    HW1 6135   4.386   4.126   0.248  0.0690  0.3259 -0.3720
 1964SOL    HW2 6136   4.498   4.181   0.333 -0.4795  0.3260  0.3638
 1965SOL     OW 6137   1.792   4.525   0.669 -0.2734  0.9992 -0.0202
 1965SOL    HW1 6138   1.743   4.607   0.658  0.4838  1.5428  0.6184
 1965SOL    HW2 6139   1.744   4.478   0.737  0.3588  1.7503  0.9627
 1966SOL     OW 6140   3.450   2.231   2.372  0.5394  0.0781  0.0676
 1966SOL    HW1 6141   3.491   2.316   2.386 -0.1952  0.2878  1.0386
 1966SOL    HW2 6142   3.482   2.177   2.445  1.0230 -0.4947 -0.5543
 1967SOL     OW 6143   5.201   4.448   2.496  0.0398  0.1273  0.3355
 1967SOL    HW1 6144   5.201   4.417   2.406 -0.3704 -0.1465  0.4292
 1967SOL    HW2 6145   5.224   4.541   2.489  0.3297  0.0304 -0.0208
 1968SOL     OW 6146   6.176   4.178   3.324  0.2283  0.1635  0.1941
 1968SOL    HW1 6147   6.093   4.141   3.355  1.0792 -2.9061 -0.8644
 1968SOL    HW2 6148   6.237   4.162   3.397  0.6697 -0.9024 -0.3842
 1969SOL     OW 6149   2.664   1.798   2.365  0.2997 -0.0633 -0.6742
 1969SOL    HW1 6150   2.624   1.769   2.447  0.3197 -0.0938 -0.6752
 1969SOL    HW2 6151   2.628   1.739   2.299 -1.4427  1.3310 -1.0493
 1970SOL     OW 6152   3.776   1.984   0.396 -0.4457  0.1269 -0.1369
 1970SOL    HW1 6153   3.849   1.923   0.414  0.5737  0.5342 -2.5722
 1970SOL    HW2 6154   3.702   1.927   0.375 -0.5977 -0.2752  1.3531
 1971SOL     OW 6155   6.367   5.564   3.302 -0.2650  0.1352  0.1398
 1971SOL    HW1 6156   6.438   5.561   3.366 -0.9364  1.2693  0.9885
 1971SOL    HW2 6157   6.300   5.617   3.344 -0.2748  1.9378 -2.0045
 1972SOL     OW 6158   3.609   6.546   3.339  0.2403  0.3853 -0.4145
 1972SOL    HW1 6159   3.613   6.528   3.245  0.1429  0.8951 -0.5143
 1972SOL    HW2 6160   3.557   6.473   3.374  0.8041 -0.1485 -0.6634
 1973SOL     OW 6161   5.288   5.224   3.097 -0.4218  0.2059 -0.0152
 1973SOL    HW1 6162   5.193   5.236   3.095 -0.7682 -2.0911 -0.5096
 1973SOL    HW2 6163   5.300   5.129   3.099  1.8504  0.4167  2.9750
 1974SOL     OW 6164   0.817   4.879   0.318 -0.3986  0.2267 -0.7143
 1974SOL    HW1 6165   0.747   4.818   0.294 -0.5948  0.1421  0.0379
 1974SOL    HW2 6166   0.818   4.877   0.414  1.4348 -0.7133 -0.7009
 1975SOL     OW 6167   1.443   4.707   1.683  0.0944  0.1166 -0.4796
 1975SOL    HW1 6168   1.397   4.764   1.745 -2.7925 -0.7781 -1.6294
 1975SOL    HW2 6169   1.456   4.626   1.731  0.0164  0.2090 -0.2989
 1976SOL     OW 6170   4.124   4.319   2.179  0.0700  0.0676 -0.9902
 1976SOL    HW1 6171   4.148   4.259   2.250  0.5753 -0.7654 -1.8407
 1976SOL    HW2 6172   4.189   4.302   2.111  0.3056  1.6908 -1.2013
 1977SOL     OW 6173   3.572   6.233   2.597 -0.3745  0.4571 -0.0567
 1977SOL    HW1 6174   3.480   6.247   2.621 -0.2979  0.7433  0.0693
 1977SOL    HW2 6175   3.601   6.162   2.654 -0.5844  0.2080 -0.2591
 1978SOL     OW 6176   1.752   3.035   1.390  0.2584  0.1068 -0.0948
 1978SOL    HW1 6177   1.750   2.990   1.306 -0.8670 -1.1156  0.5367
 1978SOL    HW2 6178   1.665   3.076   1.397  0.8843  1.4981 -0.1790
 1979SOL     OW 6179   5.921   5.560   1.946  0.0873 -0.6623  0.3884
 1979SOL    HW1 6180   5.885   5.472   1.957  1.1329 -1.6074 -2.5592
 1979SOL    HW2 6181   6.008   5.546   1.907 -0.2360  1.6506 -1.4106
 1980SOL     OW 6182   3.986   5.827   2.923 -0.5240 -0.2672 -0.1413
 1980SOL    HW1 6183   4.079   5.836   2.901 -0.6866 -0.9654 -1.1935
 1980SOL    HW2 6184   3.971   5.892   2.991  0.7537 -0.1920  0.0899
 1981SOL     OW 6185   1.398   5.085   1.139 -0.0450 -0.7113 -0.0548
 1981SOL    HW1 6186   1.312   5.091   1.098  0.1296 -1.7931 -0.6172
 1981SOL    HW2 6187   1.381   5.048   1.225 -0.1676 -0.6084 -0.0337
 1982SOL     OW 6188   2.925   2.202   3.099 -0.0490  0.7750  0.2452
 1982SOL    HW1 6189   2.908   2.276   3.158 -2.6504  1.0963 -0.7617
 1982SOL    HW2 6190   2.863   2.214   3.027 -1.5742 -3.0504  0.6764
 1983SOL     OW 6191   4.916   2.941   1.975  0.5357  0.2681  0.1620
 1983SOL    HW1 6192   4.832   2.926   1.931  0.0973 -0.9235  1.3483
 1983SOL    HW2 6193   4.963   3.001   1.917 -1.2400  1.2064 -0.3911
 1984SOL     OW 6194   1.881   2.049   0.913 -0.7643  0.2489  0.4535
 1984SOL    HW1 6195   1.894   2.116   0.980 -1.9721 -0.3486  1.3174
 1984SOL    HW2 6196   1.913   2.089   0.832 -1.9556  2.1004  0.8419
 1985SOL     OW 6197   3.359   2.141   0.431  0.0319  0.2325 -0.1313
 1985SOL    HW1 6198   3.291   2.207   0.437  0.5942  0.8697 -0.6329
 1985SOL    HW2 6199   3.432   2.176   0.482 -0.1991 -0.7025  0.8825
 1986SOL     OW 6200   1.486   4.273   1.000  0.0502 -0.7499  0.0841
 1986SOL    HW1 6201   1.497   4.226   1.083  0.6272  1.9751  1.6720
 1986SOL    HW2 6202   1.452   4.207   0.939 -1.4915 -2.5986  2.7612
 1987SOL     OW 6203   2.045   0.995   0.069  0.2190 -0.3823  0.0126
 1987SOL    HW1 6204   1.993   1.064   0.109 -0.2381  0.5435 -2.0618
 1987SOL    HW2 6205   2.123   1.040   0.036  0.6778 -1.1579  0.0071
 1988SOL     OW 6206   5.884   4.186   3.183 -0.6627  0.2286 -0.0159
 1988SOL    HW1 6207   5.907   4.094   3.196  1.8264  1.0250  1.9739
 1988SOL    HW2 6208   5.821   4.205   3.254  2.4617  1.1129  2.7719
 1989SOL     OW 6209   2.764   2.120   0.844 -0.3547 -0.3298 -0.8587
 1989SOL    HW1 6210   2.766   2.032   0.883  1.7477 -0.4608 -1.1246
 1989SOL    HW2 6211   2.765   2.180   0.918  1.1986 -0.5757 -0.6395
 1990SOL     OW 6212   3.773   1.469   0.921  0.6933 -0.2377  0.1512
 1990SOL    HW1 6213   3.690   1.483   0.875  1.5980  2.4848 -0.8727
 1990SOL    HW2 6214   3.753   1.403   0.988 -2.5450  1.0018  0.5762
 1991SOL     OW 6215   2.600   3.429   2.242 -0.0075  0.6616 -0.0130
 1991SOL    HW1 6216   2.539   3.364   2.278 -1.1566  1.9956  0.5249
 1991SOL    HW2 6217   2.686   3.387   2.250 -0.6304 -0.4910  1.0372
 1992SOL     OW 6218   2.820   3.859   2.379  0.2565  0.4540  0.7781
 1992SOL    HW1 6219   2.761   3.845   2.306  1.2503 -2.0113  0.3609
 1992SOL    HW2 6220   2.768   3.842   2.457  0.3138 -1.5548  0.4191
 1993SOL     OW 6221   4.838   3.643   0.742  0.2815 -0.0848  0.0109
 1993SOL    HW1 6222   4.793   3.712   0.789 -0.4121 -0.9905  0.7264
 1993SOL    HW2 6223   4.931   3.655   0.764  0.0530 -0.0087  0.9906
 1994SOL     OW 6224   3.723   2.395   1.441 -0.3492 -0.3798  0.2437
 1994SOL    HW1 6225   3.797   2.356   1.487  1.2081  1.2600 -0.7412
 1994SOL    HW2 6226   3.671   2.320   1.412 -0.6225 -1.5262  3.2703
 1995SOL     OW 6227   4.934   4.996   1.590 -0.3141 -0.2985 -0.3591
 1995SOL    HW1 6228   5.002   5.021   1.528  1.4226  3.7449  2.7717
 1995SOL    HW2 6229   4.975   4.930   1.645 -0.7751 -1.5276 -1.4226
 1996SOL     OW 6230   0.055   2.542   0.078 -0.3437 -0.4389 -0.0928
 1996SOL    HW1 6231   0.111   2.484   0.027  2.3409  3.0251 -1.5181
 1996SOL    HW2 6232   0.062   2.510   0.168  1.0523 -2.2241 -0.7877
 1997SOL     OW 6233   1.883   5.429   1.697  0.8305 -0.3781  0.1099
 1997SOL    HW1 6234   1.821   5.448   1.768  0.1132 -0.8568 -0.3821
 1997SOL    HW2 6235   1.969   5.445   1.736  0.4771 -1.1957  1.2635
 1998SOL     OW 6236   3.087   3.823   0.241 -0.1129 -0.0438 -0.1743
 1998SOL    HW1 6237   3.098   3.906   0.195  1.4287  0.7226  1.4705
 1998SOL    HW2 6238   2.999   3.794   0.217 -0.1810  1.3716 -1.8450
 1999SOL     OW 6239   5.135   5.261   1.783 -0.2516 -0.2934 -0.5758
 1999SOL    HW1 6240   5.213   5.292   1.830  0.3571 -0.8177 -1.2095
 1999SOL    HW2 6241   5.139   5.305   1.698  0.8883 -2.3610 -1.6849
 2000SOL     OW 6242   3.983   2.237   3.146 -0.0168 -0.5702 -0.5795
 2000SOL    HW1 6243   4.077   2.236   3.164 -0.0228 -1.8857 -0.5084
 2000SOL    HW2 6244   3.946   2.294   3.213  0.5470 -1.3817  0.4621
 2001SOL     OW 6245   4.239   2.994   0.679  0.4130  0.5176 -0.0489
 2001SOL    HW1 6246   4.206   3.040   0.602  0.4651 -0.0703 -0.4242
 2001SOL    HW2 6247   4.230   3.058   0.750 -2.7042  0.0230  0.1519
 2002SOL     OW 6248   2.458   2.685   2.170 -0.1072  0.0565  0.2634
 2002SOL    HW1 6249   2.543   2.727   2.181  0.7326 -1.1954 -1.1407
 2002SOL    HW2 6250   2.400   2.733   2.230  1.4124  1.3610  0.7653
 2003SOL     OW 6251   7.046   6.083   3.343 -0.0341 -0.2211 -0.3026
 2003SOL    HW1 6252   7.053   6.098   3.248 -1.4949 -1.7213 -0.6888
 2003SOL    HW2 6253   6.993   6.004   3.351  0.5709 -0.4723  1.7777
 2004SOL     OW 6254   2.595   4.704   0.388 -0.3829 -0.0592  0.4006
 2004SOL    HW1 6255   2.593   4.665   0.301 -2.3962  0.6391  0.0911
 2004SOL    HW2 6256   2.603   4.798   0.372  1.0336 -0.0351  1.0569
 2005SOL     OW 6257   2.429   5.091   2.447 -0.6636  0.1451  0.1788
 2005SOL    HW1 6258   2.513   5.059   2.479  0.4136  0.6762 -1.9167
 2005SOL    HW2 6259   2.428   5.184   2.470  0.6311  0.8098 -2.1217
 2006SOL     OW 6260   2.498   5.124   2.179 -0.7768  0.0510  0.3674
 2006SOL    HW1 6261   2.582   5.085   2.205 -0.1781  0.6203 -0.6315
 2006SOL    HW2 6262   2.434   5.083   2.236  0.0771 -1.0041  0.6068
 2007SOL     OW 6263   0.780   4.314   0.394 -0.3481  0.1961  0.2379
 2007SOL    HW1 6264   0.686   4.330   0.401 -0.7009 -1.7920  0.6676
 2007SOL    HW2 6265   0.787   4.223   0.365  1.4565  0.3562  0.0439
 2008SOL     OW 6266   2.567   4.715   3.355  0.1636  0.1327 -0.1308
 2008SOL    HW1 6267   2.621   4.723   3.276 -1.1505  0.3555 -1.0316
 2008SOL    HW2 6268   2.484   4.680   3.324 -0.4937  0.5302  1.1188
 2009SOL     OW 6269   2.803   1.750   2.137 -0.1498  0.5243 -0.1149
 2009SOL    HW1 6270   2.826   1.834   2.097 -1.9471  0.4359 -1.4960
 2009SOL    HW2 6271   2.785   1.771   2.229  2.3880  1.0568  0.3282
 2010SOL     OW 6272   0.662   0.852   0.848  0.0696  0.4048  0.0917
 2010SOL    HW1 6273   0.649   0.849   0.754  0.5823  2.1459 -0.0837
 2010SOL    HW2 6274   0.578   0.881   0.884 -0.8944 -2.5360  0.4717
 2011SOL     OW 6275   1.608   5.925   2.114  0.5084  0.3577 -1.1188
 2011SOL    HW1 6276   1.659   5.931   2.195 -1.6625 -1.0291  0.4995
 2011SOL    HW2 6277   1.603   6.015   2.082  1.1740  1.0184  0.4976
 2012SOL     OW 6278   4.420   4.117   2.753 -0.4182  0.2529  0.2699
 2012SOL    HW1 6279   4.439   4.044   2.812  0.3704  1.4888  1.5966
 2012SOL    HW2 6280   4.400   4.191   2.810  0.9808  1.6578 -0.9579
 2013SOL     OW 6281   2.778   2.287   0.026  0.3168  0.3225 -0.2356
 2013SOL    HW1 6282   2.702   2.337  -0.004 -1.0605 -1.6116 -0.1095
 2013SOL    HW2 6283   2.768   2.201  -0.013  2.3722 -0.0702 -0.0419
 2014SOL     OW 6284   2.974   5.495   1.415 -0.2374 -0.6844  0.0521
 2014SOL    HW1 6285   2.971   5.563   1.348 -1.8565  1.0188  1.7139
 2014SOL    HW2 6286   3.067   5.479   1.429  0.1770  0.7007 -0.8941
 2015SOL     OW 6287   5.750   5.048   3.222  0.2060  0.7974 -0.0721
 2015SOL    HW1 6288   5.832   5.009   3.189  0.1387  1.0747 -0.5860
 2015SOL    HW2 6289   5.688   5.035   3.151 -0.4564 -0.2133  0.6685
 2016SOL     OW 6290   4.911   1.437   1.339 -0.1484 -0.4105 -0.9354
 2016SOL    HW1 6291   4.837   1.432   1.400 -0.4898 -0.2691 -1.3363
 2016SOL    HW2 6292   4.873   1.468   1.257  0.1580 -1.4742 -1.4959
 2017SOL     OW 6293   3.365   6.767   2.842 -0.1933 -0.5741 -0.1309
 2017SOL    HW1 6294   3.370   6.799   2.932 -1.2911 -1.5101  0.3014
 2017SOL    HW2 6295   3.273   6.780   2.817  0.5721  1.9617 -2.0440
 2018SOL     OW 6296   5.592   5.634   2.331 -0.6428  0.2204 -0.2534
 2018SOL    HW1 6297   5.623   5.642   2.422 -1.1305  0.5767 -0.1172
 2018SOL    HW2 6298   5.538   5.711   2.318 -0.7915  0.0269 -0.7672
 2019SOL     OW 6299   3.524   5.947   2.034 -0.2261  0.6698 -0.0138
 2019SOL    HW1 6300   3.519   5.937   2.129  1.0161  2.4574  0.2706
 2019SOL    HW2 6301   3.432   5.948   2.005 -0.6087 -0.8331  1.0097
 2020SOL     OW 6302   3.614   4.562   3.024  0.4503 -0.5521 -0.0443
 2020SOL    HW1 6303   3.609   4.593   2.934  0.4541 -2.5241 -0.7734
 2020SOL    HW2 6304   3.704   4.530   3.032  0.4290 -0.4460  0.6590
 2021SOL     OW 6305   5.354   2.872   1.356  0.2091  0.7100  0.0647
 2021SOL    HW1 6306   5.268   2.900   1.387 -0.7432 -2.4891  0.5786
 2021SOL    HW2 6307   5.355   2.898   1.264 -1.6063  0.1843 -0.1365
 2022SOL     OW 6308   6.152   5.562   2.876 -0.1853 -0.2987  0.3315
 2022SOL    HW1 6309   6.216   5.597   2.938  1.0532 -0.9660 -0.5361
 2022SOL    HW2 6310   6.144   5.629   2.808 -1.4996  0.4072  1.1362
 2023SOL     OW 6311   4.575   4.955   3.319 -0.2704 -0.1767  0.1673
 2023SOL    HW1 6312   4.511   4.998   3.375  0.0727  0.2806  0.2161
 2023SOL    HW2 6313   4.526   4.928   3.242 -0.7557 -0.8367  0.6923
 2024SOL     OW 6314   1.532   2.593   0.676 -0.6837 -0.0966  0.4690
 2024SOL    HW1 6315   1.594   2.630   0.614  0.6402 -2.2993  0.3557
 2024SOL    HW2 6316   1.446   2.624   0.646  0.2168  1.7978 -0.2689
 2025SOL     OW 6317   4.740   1.931   0.414  0.7124 -0.8360 -0.0308
 2025SOL    HW1 6318   4.686   1.867   0.368 -0.3227 -0.4838  0.6571
 2025SOL    HW2 6319   4.817   1.941   0.359 -0.2677 -0.7673 -1.4523
 2026SOL     OW 6320   2.583   3.486  -0.008  0.0150  0.5522  0.3367
 2026SOL    HW1 6321   2.605   3.573  -0.040 -0.9950  0.9234  0.6058
 2026SOL    HW2 6322   2.635   3.476   0.072  1.3259  0.2589 -0.5227
 2027SOL     OW 6323   5.734   4.727   1.365  0.1984 -0.0662  0.0200
 2027SOL    HW1 6324   5.719   4.798   1.428 -1.1106 -0.0900 -0.2232
 2027SOL    HW2 6325   5.789   4.766   1.297  1.7657 -0.0857  1.2180
 2028SOL     OW 6326   4.832   5.246   0.968  0.1414  0.2860  0.3375
 2028SOL    HW1 6327   4.747   5.204   0.956 -0.2313  0.8720  0.8321
 2028SOL    HW2 6328   4.820   5.334   0.933  0.9977 -0.0898 -0.9549
 2029SOL     OW 6329   4.186   2.808   2.897 -0.2537 -0.3237  0.2227
 2029SOL    HW1 6330   4.125   2.870   2.937  1.8967  1.2148  1.3527
 2029SOL    HW2 6331   4.227   2.858   2.825  0.8634 -0.7172  0.5692
 2030SOL     OW 6332   5.425   5.565   1.446 -0.1760 -0.3352 -0.0119
 2030SOL    HW1 6333   5.506   5.591   1.489  0.6514  0.5610 -1.9874
 2030SOL    HW2 6334   5.449   5.550   1.354 -2.2539  0.1514 -0.7135
 2031SOL     OW 6335   0.705   0.909   0.564 -0.1644 -0.2084  0.1420
 2031SOL    HW1 6336   0.716   0.988   0.617  0.1857 -0.5329  0.5538
 2031SOL    HW2 6337   0.643   0.935   0.495 -0.7936  0.1551  0.8290
 2032SOL     OW 6338   1.321   1.402   0.017  0.1898 -0.3291  0.7895
 2032SOL    HW1 6339   1.359   1.470   0.072  0.4786 -0.2462  0.4871
 2032SOL    HW2 6340   1.362   1.414  -0.069 -1.2275  0.3981  0.1772
 2033SOL     OW 6341   2.711   2.197   2.050  0.0935  0.2023  0.5201
 2033SOL    HW1 6342   2.784   2.151   2.009 -1.5479 -1.3384 -0.8429
 2033SOL    HW2 6343   2.713   2.284   2.011 -0.3664 -0.6797 -1.6006
 2034SOL     OW 6344   0.619   1.628   0.361  0.1080  0.5444  0.2829
 2034SOL    HW1 6345   0.596   1.720   0.342  3.6380  1.5502  0.1932
 2034SOL    HW2 6346   0.653   1.594   0.278  0.8976 -0.1189  0.8629
 2035SOL     OW 6347   3.654   5.155   0.572  0.4853 -0.0542 -0.0061
 2035SOL    HW1 6348   3.627   5.169   0.481 -1.1721  0.8721  0.5832
 2035SOL    HW2 6349   3.620   5.067   0.593  0.7745 -0.2243 -0.2422
 2036SOL     OW 6350   5.523   1.555   1.781  0.4126  0.3778 -0.6969
 2036SOL    HW1 6351   5.587   1.619   1.750  3.3257 -0.6816  2.5343
 2036SOL    HW2 6352   5.567   1.471   1.774 -0.4445 -0.3898  1.8464
 2037SOL     OW 6353   2.139   6.408   2.801 -0.1840 -0.7000  0.0079
 2037SOL    HW1 6354   2.100   6.416   2.714  0.2025  0.5666 -0.0602
 2037SOL    HW2 6355   2.100   6.479   2.852 -0.3360 -1.3656  0.8562
 2038SOL     OW 6356   2.436   2.433   0.531 -0.2332  0.0239  0.1083
 2038SOL    HW1 6357   2.466   2.446   0.441 -0.6181  0.8520  0.0901
 2038SOL    HW2 6358   2.487   2.359   0.563 -0.1975 -0.3687 -0.8367
 2039SOL     OW 6359   6.210   3.867   2.812  0.2310  0.2902  0.3281
 2039SOL    HW1 6360   6.121   3.841   2.835  0.3022 -2.1940 -1.7956
 2039SOL    HW2 6361   6.201   3.951   2.769 -1.2197 -0.3155 -0.6073
 2040SOL     OW 6362   3.609   3.382   0.309  0.4177 -0.3320 -0.5333
 2040SOL    HW1 6363   3.605   3.459   0.251  0.2274  1.0489  1.2369
 2040SOL    HW2 6364   3.689   3.337   0.283 -1.5365 -2.0606 -4.5310
 2041SOL     OW 6365   4.204   1.753   1.396 -0.2190 -0.5030  0.0266
 2041SOL    HW1 6366   4.161   1.817   1.340  1.6057 -0.4586 -1.4286
 2041SOL    HW2 6367   4.249   1.695   1.334  2.3601 -0.1031  1.4275
 2042SOL     OW 6368   6.781   6.127   2.917  0.2039 -0.2986  0.0609
 2042SOL    HW1 6369   6.744   6.180   2.988 -3.0061 -0.3838 -1.3532
 2042SOL    HW2 6370   6.827   6.190   2.862 -1.9360  0.8270 -0.5803
 2043SOL     OW 6371   5.055   6.264   2.638 -0.1084 -0.3391  0.4088
 2043SOL    HW1 6372   5.030   6.345   2.594  1.1081  1.0456  2.1194
 2043SOL    HW2 6373   5.147   6.277   2.661 -0.0455 -1.9928  1.2236
 2044SOL     OW 6374   4.615   0.666   0.734  0.8505  0.0894 -0.5177
 2044SOL    HW1 6375   4.576   0.708   0.810 -0.6903 -2.7925  0.4286
 2044SOL    HW2 6376   4.710   0.674   0.747  0.6011  1.0594  0.8330
 2045SOL     OW 6377   4.009   5.189   1.732 -0.2827 -0.0540 -0.4132
 2045SOL    HW1 6378   4.082   5.246   1.756 -0.4496  0.1417 -0.3712
 2045SOL    HW2 6379   3.968   5.167   1.816 -0.7808  0.5156 -0.5074
 2046SOL     OW 6380   1.416   0.524   0.220 -0.2996 -0.2543  0.3268
 2046SOL    HW1 6381   1.344   0.492   0.274 -0.7377 -1.8041 -1.0901
 2046SOL    HW2 6382   1.472   0.448   0.207  0.7993  0.5608  0.1472
 2047SOL     OW 6383   3.953   3.099   0.195  0.1513  0.2294 -0.2228
 2047SOL    HW1 6384   3.891   3.065   0.131  2.4013 -0.7691 -2.0344
 2047SOL    HW2 6385   4.038   3.095   0.150  1.6205  0.9741  2.2977
 2048SOL     OW 6386   1.934   2.004   1.773  0.4515  0.2314 -0.6314
 2048SOL    HW1 6387   1.954   1.936   1.838 -1.2982 -1.8359 -2.1215
 2048SOL    HW2 6388   1.985   1.980   1.697 -1.1217 -0.2201 -1.5962
 2049SOL     OW 6389   2.013   5.955   1.936 -0.0746 -0.4246 -0.4443
 2049SOL    HW1 6390   2.053   5.979   1.853  0.6550 -0.2432 -0.0438
 2049SOL    HW2 6391   2.086   5.936   1.994 -0.5608 -0.0265  0.3235
 2050SOL     OW 6392   5.452   2.669   1.892 -0.0124 -0.1105  0.1593
 2050SOL    HW1 6393   5.543   2.676   1.863  0.3418 -0.6146  1.1066
 2050SOL    HW2 6394   5.435   2.575   1.893 -0.0564 -0.0953  1.4499
 2051SOL     OW 6395   2.270   2.128   1.235 -0.6954  0.1455 -0.3939
 2051SOL    HW1 6396   2.268   2.184   1.313  2.3799 -0.5632  0.3413
 2051SOL    HW2 6397   2.188   2.079   1.238  0.0440 -1.1787  3.5050
 2052SOL     OW 6398   2.501   3.963   0.204 -0.2324 -0.0735 -0.1003
 2052SOL    HW1 6399   2.507   3.963   0.108 -0.0445 -1.2619 -0.0980
 2052SOL    HW2 6400   2.588   3.990   0.233 -0.7625  1.9882 -0.2523
 2053SOL     OW 6401   2.855   4.179   2.761 -0.4975 -0.3585  0.7811
 2053SOL    HW1 6402   2.880   4.094   2.796  1.5181  0.1246  0.6548
 2053SOL    HW2 6403   2.780   4.160   2.704  1.9414 -2.7219 -2.0227
 2054SOL     OW 6404   5.212   2.339   2.648 -0.3075  0.4275  0.5095
 2054SOL    HW1 6405   5.152   2.271   2.680 -0.4268  0.7220  0.9311
 2054SOL    HW2 6406   5.157   2.395   2.592  0.1458 -0.6942 -1.1024
 2055SOL     OW 6407   3.148   3.343   1.264 -0.2768  0.2338 -0.2633
 2055SOL    HW1 6408   3.082   3.360   1.331  0.4235 -0.2448  0.5776
 2055SOL    HW2 6409   3.161   3.248   1.266 -0.1246  0.2342 -0.9615
 2056SOL     OW 6410   1.489   1.034   1.059 -0.1346 -0.4086 -0.6346
 2056SOL    HW1 6411   1.421   0.969   1.078  3.1992 -4.0787  0.2105
 2056SOL    HW2 6412   1.484   1.047   0.965 -1.0564 -1.8191 -0.8157
 2057SOL     OW 6413   3.332   1.473   0.450  0.2249 -0.3227  1.0666
 2057SOL    HW1 6414   3.394   1.400   0.444 -0.3548 -0.7850  0.6586
 2057SOL    HW2 6415   3.334   1.514   0.364  0.2234 -0.1278  1.1593
 2058SOL     OW 6416   2.219   1.198   0.845 -0.0014  0.6366 -0.4498
 2058SOL    HW1 6417   2.232   1.251   0.767  0.6718 -0.9396 -1.4580
 2058SOL    HW2 6418   2.124   1.191   0.854 -0.1045 -0.1199 -1.8429
 2059SOL     OW 6419   3.241   5.901   2.371 -0.3267  0.0895 -0.2360
 2059SOL    HW1 6420   3.206   5.940   2.290  0.0912 -0.3677 -0.6389
 2059SOL    HW2 6421   3.330   5.874   2.348 -0.7332 -1.4677 -0.0923
 2060SOL     OW 6422   2.221   2.411   2.651  0.1434  0.2127 -0.3243
 2060SOL    HW1 6423   2.178   2.376   2.729  2.5231  0.8311  1.4046
 2060SOL    HW2 6424   2.171   2.377   2.578 -1.6283 -1.2158  1.4515
 2061SOL     OW 6425   1.201   2.488   1.612 -0.0062 -0.4887  0.3677
 2061SOL    HW1 6426   1.292   2.471   1.587 -0.6311 -2.2992 -0.8753
 2061SOL    HW2 6427   1.157   2.509   1.530 -0.6526  0.8860  1.0261
 2062SOL     OW 6428   4.027   3.612   1.790  0.2468  0.0623  0.2631
 2062SOL    HW1 6429   4.040   3.547   1.860 -1.5925 -0.1261  0.4794
 2062SOL    HW2 6430   3.932   3.618   1.781  0.4299  1.3433 -1.0745
 2063SOL     OW 6431   2.770   5.486   1.043  0.2564  0.8190  0.8738
 2063SOL    HW1 6432   2.694   5.471   0.986  0.3616  0.2309  0.8814
 2063SOL    HW2 6433   2.734   5.480   1.131  0.5487 -0.9152  0.9091
 2064SOL     OW 6434   4.337   5.224   0.976  0.0690  0.0694  0.7763
 2064SOL    HW1 6435   4.324   5.317   0.995  0.4000  0.1978  0.4038
 2064SOL    HW2 6436   4.260   5.199   0.925 -0.7636 -0.2482  2.1387
 2065SOL     OW 6437   2.622   2.999   0.837  0.3266  0.4275 -0.3456
 2065SOL    HW1 6438   2.610   3.031   0.926 -0.9757 -1.2628  0.1486
 2065SOL    HW2 6439   2.591   2.909   0.840  0.5382  0.2348 -2.4591
 2066SOL     OW 6440   3.399   1.466   0.072 -0.2814  0.4119  0.5201
 2066SOL    HW1 6441   3.484   1.479   0.115 -0.1251 -2.2719  1.2407
 2066SOL    HW2 6442   3.347   1.542   0.099  1.0103  0.7171  2.4023
 2067SOL     OW 6443   5.266   5.293   1.010 -0.1605 -0.0259  0.0438
 2067SOL    HW1 6444   5.238   5.357   1.076 -1.3625 -0.5738  0.1062
 2067SOL    HW2 6445   5.190   5.235   1.001  1.0147 -1.6483  0.2509
 2068SOL     OW 6446   6.661   2.532   2.913 -0.1072  0.0762 -0.8925
 2068SOL    HW1 6447   6.662   2.531   3.009 -0.4269 -0.4860 -0.8923
 2068SOL    HW2 6448   6.606   2.607   2.891 -0.8203 -0.3547 -0.6207
 2069SOL     OW 6449   4.966   4.718   1.894  0.2198  0.2828  0.5683
 2069SOL    HW1 6450   5.047   4.686   1.933  0.1396  0.4542  0.8802
 2069SOL    HW2 6451   4.990   4.803   1.856  0.3716 -0.0271 -0.0308
 2070SOL     OW 6452   4.779   1.453   1.800  0.3959 -0.0897  1.0876
 2070SOL    HW1 6453   4.718   1.411   1.860 -0.1064  0.5701  1.0511
 2070SOL    HW2 6454   4.805   1.534   1.844  1.0925 -0.2680  1.0172
 2071SOL     OW 6455   3.381   3.311   3.321  0.3435 -0.3391  0.1465
 2071SOL    HW1 6456   3.429   3.327   3.239  1.0736 -0.5049  0.5388
 2071SOL    HW2 6457   3.371   3.397   3.360 -1.2388 -0.0550 -0.7703
 2072SOL     OW 6458   1.254   2.556   0.327  0.2540 -0.0707  0.0589
 2072SOL    HW1 6459   1.219   2.605   0.400  1.7015  0.0658  0.6983
 2072SOL    HW2 6460   1.178   2.533   0.274 -0.6440  1.2148  0.7484
 2073SOL     OW 6461   3.903   2.331   2.877  0.1026  0.5695  0.1472
 2073SOL    HW1 6462   3.916   2.296   2.965 -1.0671 -2.2008 -0.6815
 2073SOL    HW2 6463   3.977   2.391   2.864  1.8088 -0.9877  2.0323
 2074SOL     OW 6464   3.603   2.980   1.485 -0.2804  0.0352 -0.1878
 2074SOL    HW1 6465   3.687   2.948   1.452  0.9280  2.7266 -0.0343
 2074SOL    HW2 6466   3.555   2.902   1.510  2.3986 -1.5937  0.2443
 2075SOL     OW 6467   3.988   1.324   0.174  0.6107  0.6323 -0.1082
 2075SOL    HW1 6468   3.961   1.309   0.264  2.0948  0.5722  0.3579
 2075SOL    HW2 6469   3.970   1.242   0.128 -0.5153  0.7946  0.0175
 2076SOL     OW 6470   5.073   3.741   3.111 -0.4430  0.1514  0.3930
 2076SOL    HW1 6471   5.060   3.815   3.051 -0.7534  1.8292  2.4147
 2076SOL    HW2 6472   5.030   3.667   3.067  1.1524  0.7379 -2.3840
 2077SOL     OW 6473   3.376   1.808   2.062 -0.1663 -0.1649  0.5569
 2077SOL    HW1 6474   3.340   1.766   1.984 -2.3534  0.3572  1.1997
 2077SOL    HW2 6475   3.429   1.739   2.104 -1.5649 -1.4871  0.2602
 2078SOL     OW 6476   2.744   3.749   0.332  0.0633 -0.1758 -0.0088
 2078SOL    HW1 6477   2.800   3.732   0.256  0.0671 -1.2522  0.2282
 2078SOL    HW2 6478   2.709   3.664   0.356 -1.4447  0.4169  0.0426
 2079SOL     OW 6479   4.173   3.906   2.193  0.3245 -0.5164  0.3850
 2079SOL    HW1 6480   4.086   3.867   2.200  0.0300  0.1971  0.8225
 2079SOL    HW2 6481   4.222   3.846   2.137  0.0732 -1.8358  1.5351
 2080SOL     OW 6482   5.371   4.167   1.214  0.0628 -0.1702 -0.0131
 2080SOL    HW1 6483   5.300   4.225   1.241 -0.5857 -0.8648 -0.2157
 2080SOL    HW2 6484   5.386   4.110   1.289  1.6037  1.0765  0.6978
 2081SOL     OW 6485   2.870   3.296   1.852  0.1111 -0.3008  0.1280
 2081SOL    HW1 6486   2.916   3.372   1.887 -0.8249 -0.3520  1.5766
 2081SOL    HW2 6487   2.870   3.233   1.925  1.1483 -1.8483 -1.1322
 2082SOL     OW 6488   1.223   4.034   0.279 -0.5384 -0.4422  0.1210
 2082SOL    HW1 6489   1.291   4.034   0.211 -1.2442  3.7486 -0.8517
 2082SOL    HW2 6490   1.271   4.036   0.361  0.6342  2.2448 -0.5420
 2083SOL     OW 6491   4.442   3.248   0.680 -0.1530  0.2692 -0.3748
 2083SOL    HW1 6492   4.477   3.331   0.711  0.6923  0.0625 -0.7536
 2083SOL    HW2 6493   4.348   3.263   0.672 -0.5767  0.1716  2.8915
 2084SOL     OW 6494   4.630   3.470   0.769  0.1405  0.1757 -0.3562
 2084SOL    HW1 6495   4.710   3.515   0.794  1.1148 -0.0197 -2.8487
 2084SOL    HW2 6496   4.580   3.463   0.850  3.2520 -0.9952  1.6590
 2085SOL     OW 6497   3.804   2.936   2.442 -0.3655 -0.5266 -0.1921
 2085SOL    HW1 6498   3.718   2.951   2.404 -0.0838  1.1647 -0.2438
 2085SOL    HW2 6499   3.796   2.966   2.532 -0.2388 -1.8530  0.2866
 2086SOL     OW 6500   4.606   1.721   0.688 -0.1615  0.0081  0.1177
 2086SOL    HW1 6501   4.616   1.752   0.778  1.7012  1.2035 -0.4374
 2086SOL    HW2 6502   4.695   1.699   0.660 -0.7286 -0.5306 -1.3786
 2087SOL     OW 6503   4.908   4.935   2.617  0.0888 -0.2243  0.2577
 2087SOL    HW1 6504   4.936   4.855   2.573 -0.9839 -1.1633  1.2095
 2087SOL    HW2 6505   4.927   4.919   2.709  1.1936  1.2267  0.3117
 2088SOL     OW 6506   3.327   2.306   0.101  0.7529 -0.0303  0.1544
 2088SOL    HW1 6507   3.316   2.401   0.105  0.0759 -0.1142  0.2875
 2088SOL    HW2 6508   3.244   2.271   0.133  1.5309 -0.6749  1.5408
 2089SOL     OW 6509   4.527   3.401   2.149 -0.4379  0.0992 -0.3255
 2089SOL    HW1 6510   4.583   3.327   2.126 -2.1488 -1.8021  1.2218
 2089SOL    HW2 6511   4.490   3.431   2.066 -0.9511 -1.8826 -0.8727
 2090SOL     OW 6512   4.927   3.612   3.371 -0.4998 -0.4603 -0.0971
 2090SOL    HW1 6513   4.981   3.642   3.297  0.1506 -0.0294  0.5357
 2090SOL    HW2 6514   4.981   3.628   3.448 -1.5979  0.0900  0.5767
 2091SOL     OW 6515   5.696   1.125   1.450  0.1777  0.4811  0.5335
 2091SOL    HW1 6516   5.782   1.113   1.489  1.3213 -0.3688 -2.0018
 2091SOL    HW2 6517   5.702   1.208   1.403 -0.6267  0.7411  0.8701
 2092SOL     OW 6518   4.125   3.407   3.104 -0.1915 -0.3049 -0.1058
 2092SOL    HW1 6519   4.186   3.351   3.056 -0.0558  0.3847 -0.7512
 2092SOL    HW2 6520   4.079   3.347   3.164  0.5684 -0.9504 -0.1584
 2093SOL     OW 6521   4.186   0.947   0.630  0.4443 -0.2635  0.4352
 2093SOL    HW1 6522   4.183   1.021   0.690  0.7562  1.5826 -1.6919
 2093SOL    HW2 6523   4.101   0.949   0.586 -0.6816 -2.9635  2.2581
 2094SOL     OW 6524   2.464   3.027   1.810  0.5563 -0.1995  0.1567
 2094SOL    HW1 6525   2.477   3.019   1.905  1.5122 -1.3659 -0.0385
 2094SOL    HW2 6526   2.482   2.939   1.777  1.9398  0.5768 -1.2864
 2095SOL     OW 6527   0.567   2.335   0.703 -0.7938 -0.1293  0.3643
 2095SOL    HW1 6528   0.525   2.258   0.665  0.6386 -0.2831 -0.9644
 2095SOL    HW2 6529   0.563   2.401   0.634  0.3724  0.1123  0.5075
 2096SOL     OW 6530   4.215   2.712   2.197  0.1431 -0.8774 -0.4242
 2096SOL    HW1 6531   4.132   2.749   2.228 -0.9993 -2.7217 -1.0724
 2096SOL    HW2 6532   4.238   2.764   2.120  0.5144  0.7286  0.7300
 2097SOL     OW 6533   5.101   3.385   1.181  0.1902 -0.0677 -0.1674
 2097SOL    HW1 6534   5.055   3.350   1.257 -1.3523 -0.2114 -1.1130
 2097SOL    HW2 6535   5.107   3.479   1.197 -1.4566  0.1203 -0.4980
 2098SOL     OW 6536   5.597   4.922   3.021  0.1474  0.1201 -0.4105
 2098SOL    HW1 6537   5.511   4.883   3.009 -0.1811  1.0515 -1.2567
 2098SOL    HW2 6538   5.602   4.990   2.954  0.5254  1.7819  1.1992
 2099SOL     OW 6539   0.891   0.325   0.168  0.2537 -0.0565 -0.1981
 2099SOL    HW1 6540   0.921   0.389   0.232 -1.4616  0.5704  0.0192
 2099SOL    HW2 6541   0.878   0.245   0.219  1.9981 -0.5006 -0.3944
 2100SOL     OW 6542   1.520   4.048   1.486 -0.4139  0.0622 -0.1878
 2100SOL    HW1 6543   1.435   4.089   1.473 -0.5288 -0.3730 -0.8465
 2100SOL    HW2 6544   1.500   3.965   1.530 -0.1642  0.7837  1.3699
 2101SOL     OW 6545   4.338   4.624   0.494 -0.2635  0.3180  0.0635
 2101SOL    HW1 6546   4.366   4.595   0.581 -0.5445  1.2420  0.4703
 2101SOL    HW2 6547   4.403   4.586   0.434  1.0628  1.2638  0.8562
 2102SOL     OW 6548   4.831   1.842   1.241 -0.6715  0.4362  0.1435
 2102SOL    HW1 6549   4.820   1.752   1.211 -1.2730  1.1166 -1.8031
 2102SOL    HW2 6550   4.753   1.859   1.294 -1.0895  0.1410 -0.3697
 2103SOL     OW 6551   5.006   1.066   1.375  0.4255 -0.2549  0.3929
 2103SOL    HW1 6552   4.973   1.051   1.463 -0.9115 -0.0244 -0.0451
 2103SOL    HW2 6553   5.057   1.147   1.382 -0.5223  0.3257  0.7600
 2104SOL     OW 6554   5.946   3.943   3.225 -0.0092 -1.0605 -0.3157
 2104SOL    HW1 6555   5.907   3.856   3.235  0.0835 -1.1431 -0.6635
 2104SOL    HW2 6556   6.040   3.927   3.217 -0.1519 -1.1258 -2.5442
 2105SOL     OW 6557   6.397   7.114   3.296 -0.4357  0.4036  0.1609
 2105SOL    HW1 6558   6.315   7.143   3.257 -0.8954  0.8393  1.4137
 2105SOL    HW2 6559   6.371   7.071   3.378  0.4711 -0.8430 -0.1702
 2106SOL     OW 6560   2.301   6.180   2.809  0.2603 -0.0177 -0.6741
 2106SOL    HW1 6561   2.313   6.131   2.727  1.7495 -0.5375 -0.1829
 2106SOL    HW2 6562   2.277   6.269   2.780 -3.5038 -1.1547 -1.5630
 2107SOL     OW 6563   4.073   6.258   3.082  0.6543 -0.2292 -0.7398
 2107SOL    HW1 6564   4.084   6.167   3.107 -0.1566 -0.0791  0.2194
 2107SOL    HW2 6565   4.110   6.309   3.154  1.1481  0.2061 -1.2880
 2108SOL     OW 6566   3.165   3.248   2.478  0.4551  1.2642  0.7137
 2108SOL    HW1 6567   3.073   3.255   2.502  0.1475  1.0156 -0.3336
 2108SOL    HW2 6568   3.169   3.173   2.419  1.3439  1.2267  0.8043
 2109SOL     OW 6569   0.677   3.405   0.167 -0.0331  0.0107 -0.0338
 2109SOL    HW1 6570   0.757   3.444   0.133  0.1922 -0.0151  0.4581
 2109SOL    HW2 6571   0.643   3.353   0.094  1.3370 -1.4001  0.2933
 2110SOL     OW 6572   2.212   5.489   1.310 -0.4360 -0.0607 -0.3095
 2110SOL    HW1 6573   2.120   5.482   1.334 -0.1432 -2.5805  0.3787
 2110SOL    HW2 6574   2.222   5.431   1.235  1.0071 -1.8264  1.1565
 2111SOL     OW 6575   3.404   2.458   1.594  0.6842 -0.0308 -0.3741
 2111SOL    HW1 6576   3.455   2.396   1.647  1.5103  0.4972 -0.5220
 2111SOL    HW2 6577   3.385   2.409   1.514 -1.5509 -1.2309  0.7935
 2112SOL     OW 6578   0.566   4.412   0.087  0.1293 -0.2704  0.4789
 2112SOL    HW1 6579   0.564   4.403  -0.008  0.5444  1.6451  0.2301
 2112SOL    HW2 6580   0.584   4.324   0.120 -0.3521 -1.0230 -1.1897
 2113SOL     OW 6581   3.290   1.971   0.236  0.0702 -0.4490  0.2928
 2113SOL    HW1 6582   3.327   2.043   0.288  2.2774 -1.7732  0.6818
 2113SOL    HW2 6583   3.225   2.013   0.180  1.0725  1.8083  0.7177
 2114SOL     OW 6584   2.153   5.104   2.537 -0.3915 -0.5130 -0.0566
 2114SOL    HW1 6585   2.161   5.060   2.621  0.8844  0.8282  0.5585
 2114SOL    HW2 6586   2.236   5.088   2.493 -0.3150  0.4012 -0.2554
 2115SOL     OW 6587   2.868   3.695   0.097 -0.0435 -0.5183  0.3182
 2115SOL    HW1 6588   2.802   3.736   0.041  0.4967 -0.4173 -0.2612
 2115SOL    HW2 6589   2.935   3.663   0.036 -0.4455 -2.2723  0.7335
 2116SOL     OW 6590   1.297   3.594   1.466  0.0843 -0.2958  0.2124
 2116SOL    HW1 6591   1.223   3.604   1.406 -0.4302 -0.4936  0.8014
 2116SOL    HW2 6592   1.359   3.537   1.420  1.9624  3.3119 -2.2082
 2117SOL     OW 6593   4.576   4.607   0.126  0.3152 -0.4714  0.2639
 2117SOL    HW1 6594   4.548   4.542   0.190 -0.3430 -1.0200 -0.5663
 2117SOL    HW2 6595   4.653   4.568   0.084 -0.8272 -1.3153 -1.1256
 2118SOL     OW 6596   4.446   3.915   0.764 -0.1519  0.0929 -0.1065
 2118SOL    HW1 6597   4.366   3.907   0.817 -0.0988  0.2204 -0.0062
 2118SOL    HW2 6598   4.414   3.918   0.674 -0.6602  4.3963  0.0060
 2119SOL     OW 6599   4.017   2.914   2.315  0.0576  0.0293  0.3703
 2119SOL    HW1 6600   3.938   2.905   2.368 -0.5262 -0.6813 -0.5973
 2119SOL    HW2 6601   3.986   2.945   2.230  0.8204 -0.2391 -0.0199
 2120SOL     OW 6602   3.746   1.790   1.361  0.0886  0.2418  0.3014
 2120SOL    HW1 6603   3.827   1.835   1.386  0.5438 -0.4414  0.1140
 2120SOL    HW2 6604   3.734   1.724   1.429  0.9748 -1.1939 -0.8448
 2121SOL     OW 6605   5.719   3.866   2.889  0.4238 -0.0938  0.3682
 2121SOL    HW1 6606   5.712   3.959   2.910  0.6201  0.0606 -0.2270
 2121SOL    HW2 6607   5.657   3.823   2.948 -0.5469  0.5330 -0.1701
 2122SOL     OW 6608   4.655   2.834   0.851 -0.3549 -0.1885 -0.3324
 2122SOL    HW1 6609   4.732   2.878   0.815 -0.1386 -0.5864 -0.3617
 2122SOL    HW2 6610   4.658   2.853   0.945  1.3425 -2.4743  0.1709
 2123SOL     OW 6611   4.893   3.969   2.541 -0.0639 -0.4174  0.2336
 2123SOL    HW1 6612   4.938   3.893   2.577  0.2706  0.0833  0.9092
 2123SOL    HW2 6613   4.864   4.018   2.618  0.0171  0.2966 -0.1802
 2124SOL     OW 6614   3.967   1.865   2.440 -0.1828  0.1950 -0.2698
 2124SOL    HW1 6615   3.923   1.858   2.525  0.6267 -0.0760  0.1403
 2124SOL    HW2 6616   4.010   1.780   2.429 -1.4078 -0.3001 -1.6117
 2125SOL     OW 6617   3.604   5.179   1.972  0.0497  0.1628  0.5505
 2125SOL    HW1 6618   3.569   5.147   2.055 -0.1910 -0.3127  0.2734
 2125SOL    HW2 6619   3.658   5.106   1.939 -1.6032 -0.5347 -0.7495
 2126SOL     OW 6620   4.767   5.896   2.862  0.0321 -0.3000 -0.4977
 2126SOL    HW1 6621   4.828   5.851   2.921 -0.7538 -0.7783 -0.0319
 2126SOL    HW2 6622   4.817   5.909   2.782  1.7166  1.9260  0.7942
 2127SOL     OW 6623   6.302   6.435   3.228 -0.0360  0.1703 -0.4643
 2127SOL    HW1 6624   6.232   6.500   3.228  0.7048  1.0325 -2.1638
 2127SOL    HW2 6625   6.261   6.354   3.201 -0.5642  0.4480 -0.4975
 2128SOL     OW 6626   2.431   4.887   0.766  0.2141  0.9380  0.1696
 2128SOL    HW1 6627   2.360   4.935   0.808 -0.5846  0.6008 -0.7621
 2128SOL    HW2 6628   2.464   4.946   0.698  0.8793  1.1175  0.6367
 2129SOL     OW 6629   4.137   1.701   2.040 -0.2450 -0.2628  0.1463
 2129SOL    HW1 6630   4.213   1.720   1.985 -0.0438 -1.2540  0.0534
 2129SOL    HW2 6631   4.163   1.730   2.127 -0.2813  0.6331 -0.1307
 2130SOL     OW 6632   3.606   2.460   2.443  0.3722  0.7662  0.1613
 2130SOL    HW1 6633   3.587   2.553   2.432  0.3679  0.7997  0.4567
 2130SOL    HW2 6634   3.642   2.452   2.531  0.2689  0.4713  0.1792
 2131SOL     OW 6635   5.288   4.594   0.712  0.7822 -0.3185  0.3540
 2131SOL    HW1 6636   5.300   4.565   0.622 -0.2946 -1.0881  0.4302
 2131SOL    HW2 6637   5.193   4.595   0.724  0.9072 -0.0257  1.4140
 2132SOL     OW 6638   2.531   2.997   2.077 -0.5428 -0.4392  0.0493
 2132SOL    HW1 6639   2.627   2.989   2.075 -0.5773 -1.0886  0.6989
 2132SOL    HW2 6640   2.514   3.067   2.140 -0.5497 -1.8517  1.6924
 2133SOL     OW 6641   5.336   4.571   1.614 -0.3347  0.0476 -0.4623
 2133SOL    HW1 6642   5.351   4.513   1.539 -0.0502 -1.2614  0.5620
 2133SOL    HW2 6643   5.385   4.651   1.593  0.4388 -0.6241 -1.2913
 2134SOL     OW 6644   3.405   6.499   2.945  0.1875 -0.3955  0.0333
 2134SOL    HW1 6645   3.431   6.590   2.930  0.3101 -0.6238 -1.1870
 2134SOL    HW2 6646   3.312   6.505   2.968 -0.6344 -0.1499 -2.9628
 2135SOL     OW 6647   1.987   5.019   1.279  0.0596 -0.1316 -0.1309
 2135SOL    HW1 6648   2.022   5.101   1.313  0.6001  0.6992 -2.4658
 2135SOL    HW2 6649   2.051   4.953   1.307  0.9582  0.6461 -0.2724
 2136SOL     OW 6650   3.867   4.898   1.236  0.2367  0.0281 -0.5167
 2136SOL    HW1 6651   3.914   4.974   1.201  1.3757 -1.4161 -2.3501
 2136SOL    HW2 6652   3.925   4.863   1.303 -0.9181  1.4846  1.3520
 2137SOL     OW 6653   6.519   4.035   3.247 -0.1701  0.2772  0.2981
 2137SOL    HW1 6654   6.571   3.954   3.242  0.5341  0.7744 -0.9039
 2137SOL    HW2 6655   6.538   4.080   3.165 -1.1648  1.3063  0.6149
 2138SOL     OW 6656   1.382   2.101   1.413  0.2024 -0.1868  0.1235
 2138SOL    HW1 6657   1.373   2.114   1.507 -2.9789 -2.0956  0.2316
 2138SOL    HW2 6658   1.363   2.186   1.374 -4.0182 -0.4075  1.1863
 2139SOL     OW 6659   6.042   3.297   2.505  0.4935 -0.2404  0.4427
 2139SOL    HW1 6660   6.010   3.319   2.418  1.9326 -0.8383 -0.2621
 2139SOL    HW2 6661   5.971   3.324   2.564 -0.1890  0.8614 -0.8299
 2140SOL     OW 6662   3.261   4.027   2.536 -0.3543  0.0647 -0.5442
 2140SOL    HW1 6663   3.346   4.003   2.497 -1.3155 -1.3825 -1.9282
 2140SOL    HW2 6664   3.283   4.071   2.618  1.7314 -0.0151 -1.0038
 2141SOL     OW 6665   3.448   5.776   2.966 -0.0746 -0.0565  0.3333
 2141SOL    HW1 6666   3.544   5.779   2.961 -0.1440  0.5622 -1.5137
 2141SOL    HW2 6667   3.426   5.688   2.936 -0.1396  0.6416 -1.8202
 2142SOL     OW 6668   5.023   1.509   0.751 -0.6915 -0.1475 -0.2187
 2142SOL    HW1 6669   4.987   1.446   0.814  0.4527  0.4456  1.0859
 2142SOL    HW2 6670   4.976   1.590   0.768 -0.9836 -0.1957 -0.7531
 2143SOL     OW 6671   4.169   2.415   3.322  0.0793 -0.1416 -0.0379
 2143SOL    HW1 6672   4.083   2.427   3.282 -0.3647  0.7088  1.1240
 2143SOL    HW2 6673   4.212   2.501   3.312  0.1706 -0.0824  0.7905
 2144SOL     OW 6674   3.704   2.423   2.717  0.2689  0.0493  0.0038
 2144SOL    HW1 6675   3.736   2.337   2.691  2.4420  0.9372 -0.5450
 2144SOL    HW2 6676   3.770   2.454   2.780 -1.2224  0.7592  1.2798
 2145SOL     OW 6677   2.016   2.383   2.404  0.2428  0.2522  0.0470
 2145SOL    HW1 6678   1.930   2.418   2.428  0.3731  0.5588  0.0621
 2145SOL    HW2 6679   2.003   2.288   2.402 -0.3867  0.3524 -1.1029
 2146SOL     OW 6680   2.558   6.336   2.799  0.6758 -0.4494  0.0027
 2146SOL    HW1 6681   2.531   6.247   2.778 -0.1414 -0.2727  0.2497
 2146SOL    HW2 6682   2.565   6.337   2.895 -0.0411 -0.0682  0.0618
 2147SOL     OW 6683   2.573   3.102   1.102 -0.3980  0.0117 -0.5966
 2147SOL    HW1 6684   2.488   3.098   1.146 -0.4606  2.2526 -0.4246
 2147SOL    HW2 6685   2.633   3.134   1.169  0.6450 -1.6346 -0.6941
 2148SOL     OW 6686   2.910   2.784   2.387 -0.2585 -0.7732 -0.1640
 2148SOL    HW1 6687   2.976   2.733   2.342  0.8617  0.7938 -0.3828
 2148SOL    HW2 6688   2.843   2.720   2.412  1.1422 -2.3497 -0.2522
 2149SOL     OW 6689   0.827   4.824   0.011 -0.5263 -0.2127  0.0539
 2149SOL    HW1 6690   0.766   4.829   0.084  1.5877  0.3976  1.8859
 2149SOL    HW2 6691   0.844   4.730   0.000 -1.3541 -0.3461 -0.1087
 2150SOL     OW 6692   1.267   3.794   1.105 -0.6199  0.0569  0.3424
 2150SOL    HW1 6693   1.237   3.723   1.049  1.1280 -0.8921  0.5291
 2150SOL    HW2 6694   1.359   3.806   1.081  0.0146  0.0244  2.5363
 2151SOL     OW 6695   1.923   4.307   2.664 -0.3070 -0.2167 -0.1908
 2151SOL    HW1 6696   1.909   4.212   2.662  0.5117 -0.3366 -0.4117
 2151SOL    HW2 6697   1.960   4.328   2.578 -0.2414  0.2645 -0.0476
 2152SOL     OW 6698   2.779   3.144   0.473 -0.5388 -0.5718  0.3502
 2152SOL    HW1 6699   2.785   3.054   0.441 -0.3553 -0.5187  0.2320
 2152SOL    HW2 6700   2.797   3.137   0.567  1.6108 -0.4065 -0.0033
 2153SOL     OW 6701   6.045   2.758   3.324 -0.6546 -0.5073  0.0358
 2153SOL    HW1 6702   6.096   2.783   3.246 -0.8376 -1.1960 -0.3121
 2153SOL    HW2 6703   6.013   2.841   3.359 -1.1503 -0.2318 -1.0312
 2154SOL     OW 6704   4.054   2.843   1.272  0.0428  0.3423  0.3045
 2154SOL    HW1 6705   4.001   2.857   1.351 -0.1324  0.9264  0.0834
 2154SOL    HW2 6706   4.016   2.765   1.232  0.4918 -0.2958  1.0967
 2155SOL     OW 6707   1.332   4.351   0.249  0.2902  0.0039 -0.1368
 2155SOL    HW1 6708   1.398   4.326   0.313  2.0567  1.3786 -1.3395
 2155SOL    HW2 6709   1.284   4.270   0.232  2.7930 -1.5125 -0.4993
 2156SOL     OW 6710   6.645   2.532   3.182 -0.2621  0.1080 -0.1960
 2156SOL    HW1 6711   6.690   2.494   3.257 -0.7238  0.9062  0.4948
 2156SOL    HW2 6712   6.557   2.495   3.185  0.1429 -1.0104 -1.2204
 2157SOL     OW 6713   3.449   1.269   1.034  0.2115  0.0724  0.3010
 2157SOL    HW1 6714   3.373   1.287   1.089  0.7874 -0.4653  1.3043
 2157SOL    HW2 6715   3.414   1.218   0.961 -0.2444 -1.0680  1.2884
 2158SOL     OW 6716   3.915   3.482   0.668 -0.4540  0.1017 -0.3063
 2158SOL    HW1 6717   3.852   3.549   0.641  0.6533  0.7803 -1.2714
 2158SOL    HW2 6718   3.862   3.418   0.716 -2.4758 -0.9279 -3.5983
 2159SOL     OW 6719   1.390   1.136   0.134  0.1440  0.3224 -0.6154
 2159SOL    HW1 6720   1.352   1.223   0.132  0.8423  0.6564  0.1575
 2159SOL    HW2 6721   1.379   1.103   0.044 -0.6869  0.9472 -0.7483
 2160SOL     OW 6722   2.797   4.894   0.729  0.1972  0.1387  0.3595
 2160SOL    HW1 6723   2.720   4.924   0.680 -0.7688 -1.1978  1.0047
 2160SOL    HW2 6724   2.824   4.813   0.686  2.5230  1.5681 -1.1052
 2161SOL     OW 6725   6.148   5.353   2.068  0.6493  0.4384 -0.1947
 2161SOL    HW1 6726   6.092   5.385   1.997  1.9074  0.9052 -1.0130
 2161SOL    HW2 6727   6.189   5.433   2.102 -0.6773  0.3533  1.7571
 2162SOL     OW 6728   3.271   3.581   2.451  0.0220 -0.0876 -0.0747
 2162SOL    HW1 6729   3.301   3.512   2.392 -0.1873  0.2097 -0.5379
 2162SOL    HW2 6730   3.233   3.647   2.393  1.4770  1.0725  0.2374
 2163SOL     OW 6731   1.230   0.165   0.120  0.1450  0.0771  0.5652
 2163SOL    HW1 6732   1.300   0.221   0.087  1.0052 -0.8166  0.8242
 2163SOL    HW2 6733   1.174   0.149   0.044  0.5035  0.3904  0.2317
 2164SOL     OW 6734   4.914   3.999   3.272 -0.1468  0.4482 -0.3639
 2164SOL    HW1 6735   4.855   4.074   3.280 -0.9445 -0.1950 -0.0662
 2164SOL    HW2 6736   4.862   3.933   3.226  0.1686 -0.3050  0.3569
 2165SOL     OW 6737   5.446   4.493   1.835 -0.5391  0.7527 -0.3170
 2165SOL    HW1 6738   5.426   4.496   1.741 -0.7713  0.8870 -0.2632
 2165SOL    HW2 6739   5.541   4.493   1.839 -0.5186 -0.0304 -0.5853
 2166SOL     OW 6740   4.596   0.411   0.207  0.0381  0.9433 -0.7281
 2166SOL    HW1 6741   4.501   0.412   0.196 -0.0421 -0.2393 -0.2416
 2166SOL    HW2 6742   4.628   0.357   0.135  0.1312 -0.5068  0.3502
 2167SOL     OW 6743   3.466   4.745   3.178 -0.7116  0.6844  0.0130
 2167SOL    HW1 6744   3.504   4.661   3.152  1.2385  1.3862  0.4516
 2167SOL    HW2 6745   3.510   4.809   3.122  1.2532  1.8784  2.7201
 2168SOL     OW 6746   2.774   4.821   0.981  0.1785 -0.4420  0.1950
 2168SOL    HW1 6747   2.779   4.830   0.885 -1.3785 -1.3826 -0.0040
 2168SOL    HW2 6748   2.839   4.755   1.002 -0.7640 -1.6317 -0.4792
 2169SOL     OW 6749   3.189   4.871   2.785  0.2160  0.4523  0.2979
 2169SOL    HW1 6750   3.171   4.782   2.815  0.4666  1.0138  2.2640
 2169SOL    HW2 6751   3.242   4.860   2.706 -0.6266 -1.1328 -0.0696
 2170SOL     OW 6752   5.150   2.840   2.593  0.2482 -0.9749  0.1418
 2170SOL    HW1 6753   5.135   2.846   2.687  0.4642  2.7560  0.1037
 2170SOL    HW2 6754   5.062   2.843   2.554  0.1938 -1.7613  0.1939
 2171SOL     OW 6755   0.728   4.690   0.826 -0.2332  0.0912 -0.4728
 2171SOL    HW1 6756   0.808   4.640   0.809 -0.3558 -1.2808  2.2840
 2171SOL    HW2 6757   0.660   4.642   0.779  0.1721 -0.3137 -0.6579
 2172SOL     OW 6758   5.296   3.678   1.262 -0.0046 -0.1753 -0.0776
 2172SOL    HW1 6759   5.214   3.640   1.232  0.4108 -0.2318 -1.1680
 2172SOL    HW2 6760   5.269   3.753   1.315 -0.7585  0.5234 -1.3990
 2173SOL     OW 6761   3.466   3.560   3.196 -0.2383 -0.6724  0.1071
 2173SOL    HW1 6762   3.426   3.528   3.116 -1.6122 -2.3858  1.3989
 2173SOL    HW2 6763   3.433   3.650   3.205  1.1000  0.0853 -1.9214
 2174SOL     OW 6764   1.494   2.407   0.418 -0.1769  0.6230 -0.1405
 2174SOL    HW1 6765   1.452   2.374   0.498  0.8804  0.8014  0.5088
 2174SOL    HW2 6766   1.428   2.465   0.379 -0.6086  0.7660  0.7588
 2175SOL     OW 6767   6.429   3.899   2.581 -0.4445  0.6016  0.3166
 2175SOL    HW1 6768   6.377   3.894   2.661 -1.8585  1.8870 -0.4644
 2175SOL    HW2 6769   6.391   3.972   2.532  0.0401 -0.4423 -1.7593
 2176SOL     OW 6770   5.932   2.107   2.918  0.2194  0.0995  0.5076
 2176SOL    HW1 6771   6.012   2.100   2.971  0.1546 -0.5440  0.5265
 2176SOL    HW2 6772   5.939   2.193   2.876  0.0015  0.8882  1.9970
 2177SOL     OW 6773   5.929   2.037   1.927  0.0910  0.2551 -0.0041
 2177SOL    HW1 6774   5.884   2.054   1.844  0.7558  0.4360 -0.3314
 2177SOL    HW2 6775   5.997   2.104   1.931  0.1579  0.1524  0.6221
 2178SOL     OW 6776   3.472   2.468   2.902 -0.1234 -0.2821  0.0435
 2178SOL    HW1 6777   3.483   2.405   2.973 -0.9554  0.8325  1.2142
 2178SOL    HW2 6778   3.545   2.451   2.843 -0.2047 -2.1887  0.4105
 2179SOL     OW 6779   5.031   2.604   1.904  0.5326 -0.6612  0.1054
 2179SOL    HW1 6780   4.938   2.603   1.926  0.8664 -1.0589  1.6432
 2179SOL    HW2 6781   5.046   2.522   1.858  0.2027 -0.7782  0.2050
 2180SOL     OW 6782   2.838   4.061   0.716  0.1533 -0.4206  0.3559
 2180SOL    HW1 6783   2.878   4.147   0.702 -0.4592 -0.1801  0.0090
 2180SOL    HW2 6784   2.785   4.047   0.637  1.3477 -1.7527 -0.2417
 2181SOL     OW 6785   1.337   4.576   0.091 -0.3397 -0.1864  0.1542
 2181SOL    HW1 6786   1.316   4.501   0.147 -1.3106 -0.8629 -1.0666
 2181SOL    HW2 6787   1.308   4.549   0.004 -0.5262  1.5364 -0.3420
 2182SOL     OW 6788   3.571   2.131   0.112  0.1352  0.4872 -1.0407
 2182SOL    HW1 6789   3.590   2.060   0.173  0.5656  0.6660 -0.9629
 2182SOL    HW2 6790   3.495   2.175   0.150  0.3131  0.5107 -0.7036
 2183SOL     OW 6791   3.653   4.179   2.087  0.4559 -0.5517  0.1281
 2183SOL    HW1 6792   3.701   4.261   2.099 -1.5743  0.9573 -1.3135
 2183SOL    HW2 6793   3.573   4.190   2.138 -1.5095 -0.0275 -2.7921
 2184SOL     OW 6794   4.192   4.918   1.677  0.5945 -0.1800  0.8308
 2184SOL    HW1 6795   4.140   4.974   1.620  0.5250  0.0525  1.1238
 2184SOL    HW2 6796   4.137   4.842   1.694  1.1349 -0.9321 -0.5497
 2185SOL     OW 6797   2.329   5.191   1.271  0.6249  0.2132  0.4579
 2185SOL    HW1 6798   2.301   5.232   1.353 -2.3818 -0.9455  0.1397
 2185SOL    HW2 6799   2.260   5.214   1.208  1.9641 -0.3639 -1.3003
 2186SOL     OW 6800   2.315   2.810   2.348  0.0707  0.3050 -0.0207
 2186SOL    HW1 6801   2.279   2.771   2.428  1.3649  0.9837  0.9380
 2186SOL    HW2 6802   2.277   2.897   2.344  0.4003  0.4609  0.1556
 2187SOL     OW 6803   0.357   2.256   0.457  0.0878  0.7520 -0.7406
 2187SOL    HW1 6804   0.277   2.288   0.498 -0.6495 -0.0145 -1.5184
 2187SOL    HW2 6805   0.421   2.325   0.471 -0.8186  1.5446 -0.4073
 2188SOL     OW 6806   1.953   2.949   0.338 -0.4682  0.3571  0.7210
 2188SOL    HW1 6807   1.868   2.957   0.295  1.9337  1.6453 -4.5157
 2188SOL    HW2 6808   1.968   2.855   0.343 -1.0644  0.1233 -1.1080
 2189SOL     OW 6809   4.456   3.908   2.918  0.0460 -0.7155  0.4766
 2189SOL    HW1 6810   4.518   3.862   2.973  2.0324  1.1587 -0.0625
 2189SOL    HW2 6811   4.421   3.841   2.859  2.9083 -1.5985 -0.3793
 2190SOL     OW 6812   5.712   1.736   1.698 -0.4604 -0.2288 -0.7274
 2190SOL    HW1 6813   5.799   1.733   1.737 -0.5757 -0.1276 -0.4598
 2190SOL    HW2 6814   5.728   1.758   1.606 -0.2039 -0.2123 -0.6799
 2191SOL     OW 6815   2.154   3.883   2.782 -0.0794 -0.2090  0.3493
 2191SOL    HW1 6816   2.152   3.978   2.785 -1.5491 -0.0567 -2.1812
 2191SOL    HW2 6817   2.105   3.855   2.860  0.7668  1.0555  1.3609
 2192SOL     OW 6818   4.802   4.747   0.583  0.0695 -0.1147  0.2474
 2192SOL    HW1 6819   4.841   4.816   0.636 -0.6218 -0.1817  0.8571
 2192SOL    HW2 6820   4.718   4.783   0.554 -0.3174 -0.7155  0.6100
 2193SOL     OW 6821   1.482   2.913   0.700  0.1099 -0.1684  0.4597
 2193SOL    HW1 6822   1.572   2.922   0.729  0.0665 -2.2062  1.4617
 2193SOL    HW2 6823   1.433   2.897   0.781 -1.0305  0.1524 -0.1491
 2194SOL     OW 6824   2.365   6.001   2.426  0.0436 -0.3718 -0.0563
 2194SOL    HW1 6825   2.314   5.968   2.500 -1.0499  0.9568 -0.1849
 2194SOL    HW2 6826   2.413   5.924   2.395 -0.9600 -1.4026  0.8208
 2195SOL     OW 6827   5.333   6.046   3.136  0.8353 -0.2464  0.0458
 2195SOL    HW1 6828   5.284   6.098   3.071 -1.4312 -0.2388  1.6316
 2195SOL    HW2 6829   5.273   5.976   3.161  0.5727  1.0602  3.7769
 2196SOL     OW 6830   4.264   0.728   0.748  0.0325 -0.5165 -0.7251
 2196SOL    HW1 6831   4.314   0.774   0.815 -3.5742  0.5958  1.4727
 2196SOL    HW2 6832   4.219   0.798   0.700 -1.7720 -1.5225 -0.5555
 2197SOL     OW 6833   2.866   0.675   0.324  0.4412  0.1816  0.2850
 2197SOL    HW1 6834   2.818   0.615   0.381  1.0163  0.4879  1.1216
 2197SOL    HW2 6835   2.946   0.695   0.373  0.0082  2.0717  0.2871
 2198SOL     OW 6836   2.769   6.114   2.067 -0.2673 -0.0787 -0.1467
 2198SOL    HW1 6837   2.804   6.115   1.978 -0.0503 -1.1462 -0.0860
 2198SOL    HW2 6838   2.795   6.198   2.104  2.4928 -0.9073 -0.0178
 2199SOL     OW 6839   5.267   3.146   2.302 -0.0265  0.0501 -0.1813
 2199SOL    HW1 6840   5.281   3.058   2.338  0.1440 -0.8093 -2.1793
 2199SOL    HW2 6841   5.207   3.188   2.363  0.9915 -0.9466  1.5740
 2200SOL     OW 6842   3.114   6.249   3.082  0.1115 -0.0716 -0.1385
 2200SOL    HW1 6843   3.108   6.344   3.094  0.9277  0.0259 -0.4034
 2200SOL    HW2 6844   3.029   6.224   3.045 -0.5816  0.3587  1.0983
 2201SOL     OW 6845   3.711   2.190   1.856 -0.2151 -0.1084 -0.1130
 2201SOL    HW1 6846   3.769   2.140   1.912  2.1570  3.1947  0.6750
 2201SOL    HW2 6847   3.672   2.256   1.913 -1.7708  0.2072 -1.4321
 2202SOL     OW 6848   3.227   3.371   0.013 -0.5832  0.1020  0.0987
 2202SOL    HW1 6849   3.242   3.404  -0.076 -1.0878  1.6245  0.5503
 2202SOL    HW2 6850   3.238   3.448   0.069 -0.0105 -0.8845  1.3954
 2203SOL     OW 6851   4.840   1.604   0.534  1.0150 -0.7655 -0.1669
 2203SOL    HW1 6852   4.913   1.664   0.548 -0.2623  0.9015 -0.2989
 2203SOL    HW2 6853   4.794   1.640   0.458  0.2325 -1.9634 -0.2893
 2204SOL     OW 6854   4.849   6.069   2.254 -0.0520  0.1619  0.3811
 2204SOL    HW1 6855   4.795   5.999   2.290  0.7313  0.7066  2.7625
 2204SOL    HW2 6856   4.854   6.134   2.324  2.2310  0.9305 -0.4171
 2205SOL     OW 6857   1.578   2.566   1.281 -0.2492  0.6002  0.3004
 2205SOL    HW1 6858   1.611   2.511   1.209  1.9136  0.5176  1.2844
 2205SOL    HW2 6859   1.619   2.651   1.266 -1.3771  1.1624  0.3519
 2206SOL     OW 6860   6.489   2.723   2.942  0.7640  0.0058  0.0327
 2206SOL    HW1 6861   6.401   2.760   2.932  0.5379 -0.9125 -1.8433
 2206SOL    HW2 6862   6.529   2.774   3.013 -0.6345  1.6501 -0.2975
 2207SOL     OW 6863   4.589   2.675   2.659 -0.3514 -0.5295 -0.3261
 2207SOL    HW1 6864   4.608   2.766   2.681  0.2686 -0.3203 -1.6352
 2207SOL    HW2 6865   4.533   2.679   2.582 -0.8074 -1.2527 -0.0471
 2208SOL     OW 6866   3.562   3.901   0.266  0.1854 -0.4393  0.2826
 2208SOL    HW1 6867   3.579   3.807   0.269  0.7819 -0.3223  0.8258
 2208SOL    HW2 6868   3.589   3.933   0.352 -1.3238  0.0191  0.6074
 2209SOL     OW 6869   3.655   4.757   1.284  0.3022  0.4108  0.5615
 2209SOL    HW1 6870   3.661   4.722   1.195  0.7796 -1.8332  1.4266
 2209SOL    HW2 6871   3.722   4.826   1.287  2.6695 -1.7008  0.0937
 2210SOL     OW 6872   4.184   6.753   3.139  0.0657  0.7933  0.5640
 2210SOL    HW1 6873   4.197   6.708   3.222 -2.6563 -1.8750 -0.2770
 2210SOL    HW2 6874   4.201   6.845   3.159 -0.3783  0.2560  4.0288
 2211SOL     OW 6875   3.130   3.565   1.626  0.0289  0.3994 -0.5758
 2211SOL    HW1 6876   3.209   3.512   1.622 -0.0740  0.2907 -1.2977
 2211SOL    HW2 6877   3.143   3.623   1.701  0.2482 -0.4717  0.0779
 2212SOL     OW 6878   4.807   5.077   1.251 -0.2500 -0.2341 -0.2928
 2212SOL    HW1 6879   4.779   5.013   1.185  0.5959  0.3666 -1.2604
 2212SOL    HW2 6880   4.820   5.158   1.203 -0.6699  0.5143  0.8121
 2213SOL     OW 6881   5.309   1.869   2.258  0.3795  0.0983  1.0547
 2213SOL    HW1 6882   5.251   1.932   2.301 -1.6344 -0.5958 -0.4303
 2213SOL    HW2 6883   5.326   1.907   2.172 -0.7687 -1.2203  0.1758
 2214SOL     OW 6884   4.033   3.792   0.684  0.4803 -0.6178  0.2449
 2214SOL    HW1 6885   4.002   3.701   0.677  0.2699 -0.5021 -0.3500
 2214SOL    HW2 6886   3.985   3.839   0.616  3.1132 -0.7310 -1.8320
 2215SOL     OW 6887   3.178   3.985   2.815  0.2087 -0.0759  0.4053
 2215SOL    HW1 6888   3.190   4.079   2.798 -1.6903  0.7885  3.1098
 2215SOL    HW2 6889   3.115   3.957   2.748  0.1039  0.8153  0.1146
 2216SOL     OW 6890   2.776   1.863   1.665  0.5234  0.4479 -0.2422
 2216SOL    HW1 6891   2.700   1.806   1.682  1.3842 -1.0167 -1.1082
 2216SOL    HW2 6892   2.783   1.864   1.569  1.3187  0.9609 -0.1790
 2217SOL     OW 6893   0.522   4.429   0.380  0.3077  1.1031 -0.1056
 2217SOL    HW1 6894   0.478   4.448   0.297  0.2497 -1.0297 -0.6264
 2217SOL    HW2 6895   0.451   4.401   0.438  0.5325  1.1229  0.1753
 2218SOL     OW 6896   5.740   3.705   2.645  0.1182 -0.1830 -0.1677
 2218SOL    HW1 6897   5.733   3.770   2.715  2.3630 -1.7027  1.6395
 2218SOL    HW2 6898   5.660   3.716   2.593 -2.7183 -0.2484  3.7730
 2219SOL     OW 6899   5.720   3.624   3.344 -0.2912 -0.7286 -0.3661
 2219SOL    HW1 6900   5.793   3.573   3.379 -0.4993 -1.5778 -1.1212
 2219SOL    HW2 6901   5.738   3.714   3.372 -0.2577 -1.2832  1.5785
 2220SOL     OW 6902   5.404   2.414   1.893 -0.6795 -0.6959  0.3975
 2220SOL    HW1 6903   5.359   2.392   1.975 -4.8190  0.5632 -1.2469
 2220SOL    HW2 6904   5.385   2.340   1.835 -1.5848  0.3025 -0.6320
 2221SOL     OW 6905   4.651   5.413   1.113 -0.1456 -0.3893  0.0808
 2221SOL    HW1 6906   4.590   5.355   1.159 -0.1674  1.2831  2.3857
 2221SOL    HW2 6907   4.737   5.391   1.149 -0.2208  1.2814  1.4225
 2222SOL     OW 6908   0.687   0.380   0.017  0.4917  0.7280  0.8518
 2222SOL    HW1 6909   0.628   0.322   0.066  0.1036  1.3447  1.1250
 2222SOL    HW2 6910   0.764   0.388   0.073  0.9414 -0.2600  0.3926
 2223SOL     OW 6911   3.261   3.426   0.442  0.1346  0.0320  0.0748
 2223SOL    HW1 6912   3.311   3.480   0.381 -0.9044  0.0545 -0.7866
 2223SOL    HW2 6913   3.302   3.339   0.436  1.2851  0.5047  0.8468
 2224SOL     OW 6914   3.843   2.240   0.354 -0.2245 -0.0937  0.1113
 2224SOL    HW1 6915   3.878   2.233   0.443 -3.8382 -0.6989  1.6582
 2224SOL    HW2 6916   3.801   2.156   0.338 -2.8381  1.2364 -0.6012
 2225SOL     OW 6917   6.448   3.078   2.367  0.7113 -0.7051 -0.0613
 2225SOL    HW1 6918   6.374   3.139   2.369  0.3805 -0.9952  3.7169
 2225SOL    HW2 6919   6.409   2.991   2.374  1.3613 -1.1239 -1.2047
 2226SOL     OW 6920   2.151   4.920   1.573 -0.0582  0.2662 -0.2076
 2226SOL    HW1 6921   2.109   4.995   1.613 -2.3698  0.5491 -2.8667
 2226SOL    HW2 6922   2.144   4.850   1.638 -1.1906  1.3875  0.9105
 2227SOL     OW 6923   3.556   1.494   0.736 -0.5963  0.2587  0.1216
 2227SOL    HW1 6924   3.525   1.476   0.647 -0.8753  1.5027 -0.0409
 2227SOL    HW2 6925   3.490   1.551   0.774 -1.0099 -1.0738  1.5145
 2228SOL     OW 6926   3.810   2.772   0.334 -0.0793  0.0603 -0.1407
 2228SOL    HW1 6927   3.858   2.711   0.278 -0.0737 -0.3407  0.2957
 2228SOL    HW2 6928   3.857   2.771   0.417  1.2082  2.2687 -0.7539
 2229SOL     OW 6929   6.977   2.566   3.390 -0.0527  0.2555  0.3996
 2229SOL    HW1 6930   7.054   2.510   3.379 -0.2092  0.0090  0.5545
 2229SOL    HW2 6931   6.981   2.626   3.315 -0.3971 -0.5674 -0.2891
 2230SOL     OW 6932   2.422   0.943   0.732 -0.2106  0.3134  0.1233
 2230SOL    HW1 6933   2.360   0.951   0.805 -0.8621 -0.1819 -0.3637
 2230SOL    HW2 6934   2.379   0.883   0.671  0.8010 -0.1119 -0.1832
 2231SOL     OW 6935   5.662   4.876   2.467 -0.4615  0.3714 -0.2131
 2231SOL    HW1 6936   5.618   4.944   2.519 -0.0517 -0.1840  0.8803
 2231SOL    HW2 6937   5.731   4.923   2.421 -1.2453  0.9891 -0.7924
 2232SOL     OW 6938   0.458   2.176   0.221 -0.3543 -0.1347 -0.2810
 2232SOL    HW1 6939   0.434   2.180   0.313 -1.1352  0.5688 -0.5081
 2232SOL    HW2 6940   0.377   2.195   0.173  0.5785  2.2115 -1.0621
 2233SOL     OW 6941   3.729   1.200   0.786 -0.0505 -0.3709 -0.1318
 2233SOL    HW1 6942   3.668   1.267   0.756  0.5290 -0.1335 -0.8260
 2233SOL    HW2 6943   3.815   1.231   0.757  0.3487 -0.9108  0.4421
 2234SOL     OW 6944   1.758   1.759   0.468  0.3661 -0.5804  0.1151
 2234SOL    HW1 6945   1.836   1.792   0.514 -0.9437  1.0162  1.3083
 2234SOL    HW2 6946   1.687   1.770   0.531 -1.0708 -0.7023 -1.4340
 2235SOL     OW 6947   2.258   2.938   2.948  0.3521 -0.1585 -0.1288
 2235SOL    HW1 6948   2.298   2.949   2.861  0.1240  1.7366 -0.0311
 2235SOL    HW2 6949   2.194   2.868   2.936  0.3241  0.0730 -1.4975
 2236SOL     OW 6950   1.392   4.068   0.850  0.1234 -0.0187  0.1053
 2236SOL    HW1 6951   1.446   3.991   0.835  1.2227  0.7185  0.1791
 2236SOL    HW2 6952   1.387   4.111   0.765  0.2256  0.2792  0.2475
 2237SOL     OW 6953   2.286   1.588   1.607  0.1363  0.1995 -0.1055
 2237SOL    HW1 6954   2.210   1.618   1.556 -0.2919  0.6583  0.7783
 2237SOL    HW2 6955   2.300   1.498   1.578  0.1280  0.5559 -1.2893
 2238SOL     OW 6956   1.803   2.849   0.060 -0.8047 -0.2476  0.2694
 2238SOL    HW1 6957   1.713   2.859   0.029 -0.5466  0.0411 -0.4265
 2238SOL    HW2 6958   1.853   2.911   0.007  0.6823 -4.0351 -3.3834
 2239SOL     OW 6959   4.312   4.089   3.073  0.1076  0.0126 -0.0322
 2239SOL    HW1 6960   4.380   4.040   3.025  0.4654  1.8348 -1.5277
 2239SOL    HW2 6961   4.319   4.057   3.163  2.4339 -0.4347 -0.2886
 2240SOL     OW 6962   2.901   2.476   2.321 -0.3722  0.5828 -0.4056
 2240SOL    HW1 6963   2.845   2.400   2.334 -1.0020  0.9337 -0.9819
 2240SOL    HW2 6964   2.976   2.442   2.272 -0.5147  0.2738 -0.4090
 2241SOL     OW 6965   3.210   6.930   3.086 -0.0055  0.3823  0.2744
 2241SOL    HW1 6966   3.157   6.945   3.164 -0.8889  0.8519 -0.4039
 2241SOL    HW2 6967   3.210   7.013   3.040  1.8719  0.5751  0.5695
 2242SOL     OW 6968   4.497   2.222   3.051  0.0613  0.2035 -0.3751
 2242SOL    HW1 6969   4.552   2.254   2.980  2.4027  0.7876  1.5574
 2242SOL    HW2 6970   4.542   2.144   3.083 -1.2001 -0.3223  0.1974
 2243SOL     OW 6971   2.451   1.002   0.422  0.1947  0.1599  0.1649
 2243SOL    HW1 6972   2.528   1.025   0.474  0.4693 -0.7943  0.1938
 2243SOL    HW2 6973   2.389   0.968   0.486  0.1713 -0.1165 -0.0057
 2244SOL     OW 6974   5.579   6.712   3.237 -0.8346 -0.1699 -0.0420
 2244SOL    HW1 6975   5.581   6.773   3.312 -0.4560  0.5906 -0.6574
 2244SOL    HW2 6976   5.538   6.633   3.272 -2.7977  0.9692  0.3824
 2245SOL     OW 6977   1.200   5.005   0.612 -0.2974 -0.6625  0.1827
 2245SOL    HW1 6978   1.293   5.007   0.591 -0.4940  0.5519 -0.6756
 2245SOL    HW2 6979   1.195   5.024   0.706  0.2799  0.2100  0.0459
 2246SOL     OW 6980   6.799   4.827   2.961 -0.4009  0.1812 -0.1643
 2246SOL    HW1 6981   6.728   4.862   3.015  0.2908  0.5531  0.5186
 2246SOL    HW2 6982   6.765   4.745   2.927 -0.2152 -1.0351  2.3503
 2247SOL     OW 6983   1.231   3.152  -0.001  0.2766 -0.3372 -0.2446
 2247SOL    HW1 6984   1.151   3.187  -0.039 -0.6517 -2.8020 -0.7254
 2247SOL    HW2 6985   1.256   3.216   0.065 -0.7583  1.6442 -1.6881
 2248SOL     OW 6986   2.721   1.523   1.704 -0.5931  0.0474  0.0107
 2248SOL    HW1 6987   2.728   1.538   1.609 -0.4059  0.0548  0.0262
 2248SOL    HW2 6988   2.811   1.520   1.735 -0.5584 -2.2077 -0.1636
 2249SOL     OW 6989   2.975   1.481   0.743 -0.2651 -0.3013 -0.0812
 2249SOL    HW1 6990   2.933   1.555   0.699 -1.1285 -0.9206 -0.3311
 2249SOL    HW2 6991   2.902   1.423   0.767  0.5108 -2.0849 -1.7811
 2250SOL     OW 6992   1.512   5.605   1.556  0.0005 -0.0142 -0.3315
 2250SOL    HW1 6993   1.541   5.517   1.532  0.0003 -0.0756 -0.1121
 2250SOL    HW2 6994   1.579   5.663   1.520  0.3804 -0.1535  0.1445
 2251SOL     OW 6995   3.148   2.301   0.423  0.6989 -0.5435 -0.4474
 2251SOL    HW1 6996   3.149   2.394   0.447  0.4527 -0.4103 -0.9488
 2251SOL    HW2 6997   3.055   2.278   0.421  0.7960 -1.2485  1.3527
 2252SOL     OW 6998   0.893   1.104   0.157  0.1278  0.6663  0.1925
 2252SOL    HW1 6999   0.813   1.151   0.179 -1.2169 -1.5699  0.3798
 2252SOL    HW2 7000   0.912   1.051   0.234  1.5865  0.8615 -0.0012
 2253SOL     OW 7001   3.509   1.587   2.156 -0.4999  0.1532 -0.5478
 2253SOL    HW1 7002   3.501   1.552   2.245 -2.3525 -0.8544 -1.0339
 2253SOL    HW2 7003   3.560   1.521   2.109  0.4700  0.6805 -0.2574
 2254SOL     OW 7004   2.243   1.830   1.381 -0.3923  0.1140 -0.2339
 2254SOL    HW1 7005   2.328   1.864   1.408 -0.4105  0.7941 -0.9932
 2254SOL    HW2 7006   2.261   1.783   1.300 -1.0244  2.0255 -1.5542
 2255SOL     OW 7007   3.176   4.404   0.124  0.0221 -0.0593 -0.2406
 2255SOL    HW1 7008   3.222   4.423   0.206 -0.1501  0.0195 -0.1617
 2255SOL    HW2 7009   3.168   4.309   0.123 -1.4144  0.0235  0.6329
 2256SOL     OW 7010   1.917   1.860   0.044  0.0999  0.6479  0.9464
 2256SOL    HW1 7011   1.845   1.871   0.106 -1.4358  0.8463 -0.8000
 2256SOL    HW2 7012   1.903   1.773   0.006  1.5814  0.1231  1.5231
 2257SOL     OW 7013   4.345   0.988   1.200  0.1269  0.5263 -0.5527
 2257SOL    HW1 7014   4.336   1.030   1.115 -1.2564  0.4023 -0.5059
 2257SOL    HW2 7015   4.271   1.023   1.251  1.7719  1.7930  1.1290
 2258SOL     OW 7016   0.062   0.811  -0.020 -0.5303 -0.3579 -0.1868
 2258SOL    HW1 7017   0.063   0.868   0.057 -0.1258 -1.0905  0.3502
 2258SOL    HW2 7018   0.142   0.759  -0.014 -0.8570 -0.9394 -0.7142
 2259SOL     OW 7019   2.939   4.583   0.949 -0.1012  0.1303 -0.5029
 2259SOL    HW1 7020   3.034   4.593   0.952 -0.0431 -0.3688  2.2507
 2259SOL    HW2 7021   2.924   4.492   0.972 -1.2552 -0.0987 -2.0258
 2260SOL     OW 7022   4.280   3.971   0.208  0.0878 -0.4913  0.3595
 2260SOL    HW1 7023   4.285   3.881   0.177 -1.9169 -0.8650  0.9146
 2260SOL    HW2 7024   4.208   4.010   0.158  1.1674  0.9444 -0.1430
 2261SOL     OW 7025   5.598   5.699   2.618  0.4458 -0.0157 -0.2168
 2261SOL    HW1 7026   5.541   5.650   2.677  0.2361 -0.1507 -0.5304
 2261SOL    HW2 7027   5.666   5.736   2.675  0.4705 -0.4730  0.0559
 2262SOL     OW 7028   5.535   5.919   1.948  0.0984  0.2274  0.4730
 2262SOL    HW1 7029   5.491   5.974   1.883 -0.8857  0.1992  1.1030
 2262SOL    HW2 7030   5.609   5.973   1.977 -0.5758  1.0449  0.7355
 2263SOL     OW 7031   5.308   5.120   1.543 -0.1137  0.2219 -0.2082
 2263SOL    HW1 7032   5.313   5.214   1.558 -2.2556  0.1902  1.1793
 2263SOL    HW2 7033   5.239   5.110   1.478 -0.9880 -0.4255  0.7810
 2264SOL     OW 7034   2.093   3.693   0.387 -0.3706 -0.6536  0.3272
 2264SOL    HW1 7035   2.137   3.778   0.381  0.9364 -1.3409 -0.2174
 2264SOL    HW2 7036   2.010   3.705   0.340 -1.3833  1.0078  2.3961
 2265SOL     OW 7037   5.064   5.214   2.787  0.0764 -0.4807  0.4483
 2265SOL    HW1 7038   5.039   5.244   2.875 -0.5100 -0.5594  0.3124
 2265SOL    HW2 7039   5.122   5.139   2.803 -0.1144 -0.5629  0.7746
 2266SOL     OW 7040   3.984   4.725   1.656 -0.2039  0.0741 -0.1812
 2266SOL    HW1 7041   3.899   4.767   1.661 -0.9873 -1.2740 -1.4511
 2266SOL    HW2 7042   3.997   4.707   1.563 -0.6297 -3.7578  0.3461
 2267SOL     OW 7043   4.165   0.696   0.397  0.0296  0.3381 -0.0098
 2267SOL    HW1 7044   4.117   0.615   0.412 -0.0398  0.0380 -1.7376
 2267SOL    HW2 7045   4.100   0.765   0.408 -0.3876  0.0391 -0.6026
 2268SOL     OW 7046   4.037   2.624   3.176 -0.5797  0.1500 -0.1869
 2268SOL    HW1 7047   4.036   2.579   3.092 -2.5392 -0.4318  0.0845
 2268SOL    HW2 7048   4.127   2.653   3.187  0.4174 -2.3815 -1.0668
 2269SOL     OW 7049   4.824   5.204   2.633 -0.3547 -0.5435 -0.5279
 2269SOL    HW1 7050   4.836   5.109   2.623 -0.2729 -0.5911 -0.0245
 2269SOL    HW2 7051   4.903   5.233   2.678 -1.2582 -0.5667  1.1718
 2270SOL     OW 7052   2.276   4.611   0.116  0.4331 -0.3783 -0.1836
 2270SOL    HW1 7053   2.269   4.608   0.211  0.5117  0.5089 -0.1382
 2270SOL    HW2 7054   2.267   4.520   0.088 -0.6260 -0.5377  0.5996
 2271SOL     OW 7055   2.012   4.786   0.924  0.3392  0.2596 -0.9967
 2271SOL    HW1 7056   2.080   4.728   0.958 -1.1638 -1.6601 -1.0782
 2271SOL    HW2 7057   2.042   4.809   0.836  1.8814  1.2523 -0.2654
 2272SOL     OW 7058   5.291   3.894   2.297 -0.3363  0.5327  0.2459
 2272SOL    HW1 7059   5.317   3.963   2.236  2.5289 -0.3770  0.2948
 2272SOL    HW2 7060   5.237   3.835   2.245 -1.0623  1.6859 -0.3535
 2273SOL     OW 7061   5.485   5.681   1.815  0.1590  0.3427 -0.1624
 2273SOL    HW1 7062   5.503   5.763   1.860  0.0309  0.5397 -0.4720
 2273SOL    HW2 7063   5.546   5.680   1.741  2.6032 -1.3943  1.6958
 2274SOL     OW 7064   6.304   3.314   2.213 -0.4151 -0.1028 -0.1456
 2274SOL    HW1 7065   6.235   3.258   2.249  0.7169 -0.1315  2.1403
 2274SOL    HW2 7066   6.278   3.403   2.235 -0.7008  0.0572 -1.0834
 2275SOL     OW 7067   2.664   0.731   0.735  0.0823 -0.2295 -0.2024
 2275SOL    HW1 7068   2.568   0.733   0.725  0.1577  2.4214 -1.1112
 2275SOL    HW2 7069   2.686   0.819   0.766  2.2076 -0.9367  0.3922
 2276SOL     OW 7070   1.057   1.329   0.201  1.1455 -0.0814 -1.0104
 2276SOL    HW1 7071   1.028   1.256   0.146 -1.3617  0.3824 -0.4194
 2276SOL    HW2 7072   1.092   1.393   0.138  1.0354 -0.7561 -1.7822
 2277SOL     OW 7073   2.864   3.522   0.776  0.2167 -0.6675 -0.2733
 2277SOL    HW1 7074   2.873   3.615   0.755 -0.1187 -1.0105 -2.1512
 2277SOL    HW2 7075   2.773   3.501   0.754  0.0751 -1.2906  0.8409
 2278SOL     OW 7076   3.903   0.928   0.926 -0.2243 -0.1197  0.6624
 2278SOL    HW1 7077   3.855   0.845   0.935 -0.7064 -0.0033 -0.7037
 2278SOL    HW2 7078   3.926   0.933   0.834  0.0527  1.1389  0.7864
 2279SOL     OW 7079   2.182   2.299   1.501  0.5645 -0.1778 -0.3087
 2279SOL    HW1 7080   2.191   2.266   1.591 -1.8104  0.1344  0.0906
 2279SOL    HW2 7081   2.101   2.350   1.502 -0.9933 -2.3237 -3.2493
 2280SOL     OW 7082   3.515   6.006   3.256 -0.1116 -0.0638 -0.3739
 2280SOL    HW1 7083   3.429   6.048   3.264 -0.1641  0.6883 -3.3816
 2280SOL    HW2 7084   3.566   6.067   3.203  1.9600 -0.9859  0.4658
 2281SOL     OW 7085   4.540   2.573   0.865 -0.2046 -0.4291  0.0597
 2281SOL    HW1 7086   4.568   2.551   0.954 -1.7530  2.7294  1.4695
 2281SOL    HW2 7087   4.577   2.659   0.848 -1.4965 -0.1399 -1.6041
 2282SOL     OW 7088   5.338   3.253   1.166 -0.6685  1.0084 -0.1685
 2282SOL    HW1 7089   5.337   3.166   1.125  0.8601  1.0704 -0.3954
 2282SOL    HW2 7090   5.246   3.278   1.170 -1.0389 -0.0055 -1.4358
 2283SOL     OW 7091   6.212   3.852   2.256 -0.3668 -0.0341  0.2459
 2283SOL    HW1 7092   6.150   3.844   2.328  1.1419 -0.0744  1.6056
 2283SOL    HW2 7093   6.287   3.798   2.283 -0.1663 -0.9128 -1.8493
 2284SOL     OW 7094   4.750   4.329   1.977  0.2243 -0.0169  0.1128
 2284SOL    HW1 7095   4.670   4.293   1.937 -1.2693  0.6887  2.2673
 2284SOL    HW2 7096   4.738   4.424   1.972  2.1228  0.1833 -1.6953
 2285SOL     OW 7097   0.368   0.938   0.151 -0.4151 -0.3905 -0.3372
 2285SOL    HW1 7098   0.283   0.965   0.185 -1.6313 -2.2246 -1.6793
 2285SOL    HW2 7099   0.348   0.867   0.090  1.9675  0.0702 -1.8130
 2286SOL     OW 7100   5.075   1.836   1.054 -0.2254  0.2322  0.7860
 2286SOL    HW1 7101   5.158   1.883   1.059 -0.0068  0.2277 -1.6856
 2286SOL    HW2 7102   5.014   1.890   1.105  0.9084  1.0683  1.2998
 2287SOL     OW 7103   3.068   6.088   1.954  0.0747 -0.0858 -0.3956
 2287SOL    HW1 7104   3.086   6.164   2.009 -1.0097  0.8705 -1.3214
 2287SOL    HW2 7105   3.155   6.055   1.930  0.5863 -0.6072  1.9221
 2288SOL     OW 7106   5.309   1.323   1.074 -0.4690  0.0145 -0.3451
 2288SOL    HW1 7107   5.319   1.357   0.985  0.2796  0.7841  0.0188
 2288SOL    HW2 7108   5.245   1.253   1.066  1.2931 -1.5094 -1.9108
 2289SOL     OW 7109   2.950   3.424   1.433  0.6660 -0.1305 -0.1082
 2289SOL    HW1 7110   3.005   3.475   1.492  0.0031 -1.0809  1.3754
 2289SOL    HW2 7111   2.895   3.372   1.490 -0.0844 -1.0131 -1.5775
 2290SOL     OW 7112   1.318   4.679   0.624  0.2884  0.4776  0.1255
 2290SOL    HW1 7113   1.326   4.712   0.535  0.2083 -2.1468 -0.9389
 2290SOL    HW2 7114   1.261   4.602   0.617  0.0584  0.3344  2.4917
 2291SOL     OW 7115   1.257   0.971   0.330  0.5038  0.4102  0.0996
 2291SOL    HW1 7116   1.293   1.028   0.263 -2.0585 -0.8639 -2.6464
 2291SOL    HW2 7117   1.313   0.893   0.328 -0.6817 -0.5107 -2.2994
 2292SOL     OW 7118   0.525   2.478   0.469 -1.0740  0.1042  0.5030
 2292SOL    HW1 7119   0.609   2.442   0.440 -0.8974  1.2247 -0.4523
 2292SOL    HW2 7120   0.530   2.571   0.446 -1.9831  0.4963  1.8074
 2293SOL     OW 7121   2.198   3.570   1.309 -0.2651  0.2627 -0.1623
 2293SOL    HW1 7122   2.176   3.645   1.253 -1.7378 -0.7063 -0.9372
 2293SOL    HW2 7123   2.173   3.493   1.258 -2.4659 -0.6489  2.0979
 2294SOL     OW 7124   3.420   6.242   2.369  0.3167 -0.6234  0.1279
 2294SOL    HW1 7125   3.352   6.205   2.426 -1.6463  0.3929 -1.4213
 2294SOL    HW2 7126   3.502   6.207   2.404 -0.9869 -2.0096  2.0247
 2295SOL     OW 7127   5.166   1.285   1.376 -0.4176 -0.0632 -0.1254
 2295SOL    HW1 7128   5.141   1.359   1.322 -2.5364 -1.3121 -0.9516
 2295SOL    HW2 7129   5.163   1.318   1.466  1.2698  1.5029 -0.5951
 2296SOL     OW 7130   2.036   5.332   2.504 -0.0859 -0.1820  0.5679
 2296SOL    HW1 7131   2.070   5.243   2.494 -0.6361 -0.2556 -0.9516
 2296SOL    HW2 7132   2.101   5.377   2.558  1.7279 -0.7176 -1.0441
 2297SOL     OW 7133   1.262   0.547   0.662 -0.3174 -0.1003  0.4747
 2297SOL    HW1 7134   1.265   0.536   0.567  0.4148  2.1399  0.1879
 2297SOL    HW2 7135   1.346   0.511   0.693 -0.0632  0.2050  0.1426
 2298SOL     OW 7136   3.266   0.968   0.402 -0.1025 -0.0670 -0.5194
 2298SOL    HW1 7137   3.361   0.975   0.400 -0.0922 -0.2638 -1.3758
 2298SOL    HW2 7138   3.236   1.036   0.341 -0.3207 -2.2856 -3.0983
 2299SOL     OW 7139   6.020   4.476   3.211 -0.5150  0.0779 -1.0078
 2299SOL    HW1 7140   6.009   4.491   3.305 -0.8032  1.1386 -1.1976
 2299SOL    HW2 7141   5.999   4.383   3.198  1.6901 -0.6685  0.3000
 2300SOL     OW 7142   2.005   1.427   0.737 -0.3117 -0.2642  0.0072
 2300SOL    HW1 7143   1.955   1.507   0.729  0.4729  0.5752  2.5240
 2300SOL    HW2 7144   1.980   1.375   0.661 -3.5751  0.8347  0.1739
 2301SOL     OW 7145   4.684   4.906   2.455  0.1179  0.5282  0.4865
 2301SOL    HW1 7146   4.629   4.984   2.461 -0.3232  0.6397 -3.0591
 2301SOL    HW2 7147   4.772   4.936   2.478 -0.4910  1.3327  1.9624
 2302SOL     OW 7148   3.448   5.702   3.238 -0.3111 -0.2863 -0.2113
 2302SOL    HW1 7149   3.432   5.632   3.175  1.5212 -0.4960 -0.5078
 2302SOL    HW2 7150   3.478   5.776   3.186  0.4870 -0.2097  0.3331
 2303SOL     OW 7151   5.216   4.876   2.519  0.6929  0.0495 -0.0810
 2303SOL    HW1 7152   5.218   4.959   2.471  0.3395  1.2863  1.9509
 2303SOL    HW2 7153   5.126   4.844   2.506  0.3166  0.8399  0.4795
 2304SOL     OW 7154   4.970   1.189   0.414  0.3310  0.1123 -0.7252
 2304SOL    HW1 7155   4.937   1.250   0.348  2.8986  3.4793  0.7502
 2304SOL    HW2 7156   4.900   1.184   0.479 -0.1005  1.1924 -1.0844
 2305SOL     OW 7157   5.603   4.307   1.518  0.2915  0.3734  0.4259
 2305SOL    HW1 7158   5.573   4.235   1.463  0.5020 -0.4398  1.3413
 2305SOL    HW2 7159   5.577   4.386   1.471 -2.4415 -0.2803  0.7057
 2306SOL     OW 7160   1.941   3.179   0.482 -0.1399 -0.1439  0.4986
 2306SOL    HW1 7161   1.886   3.146   0.553  0.3487 -1.6857  0.1982
 2306SOL    HW2 7162   1.961   3.101   0.429  1.7208  0.4930  0.1886
 2307SOL     OW 7163   6.341   3.393   2.827  0.0402 -0.4764  0.3021
 2307SOL    HW1 7164   6.336   3.452   2.752 -1.1568 -0.9968 -0.0749
 2307SOL    HW2 7165   6.380   3.313   2.791 -2.9206 -1.6945 -0.5248
 2308SOL     OW 7166   4.673   4.752   2.706  0.0789 -0.1723 -0.9114
 2308SOL    HW1 7167   4.680   4.790   2.618  0.7017 -1.4346 -1.4354
 2308SOL    HW2 7168   4.608   4.806   2.750  0.6457  1.2340 -1.7378
 2309SOL     OW 7169   4.395   5.048   1.378 -0.6577  0.2345 -0.2565
 2309SOL    HW1 7170   4.405   4.993   1.456 -0.0941 -1.4048 -1.4111
 2309SOL    HW2 7171   4.347   4.993   1.316 -0.8833  1.4098 -1.1609
 2310SOL     OW 7172   1.571   4.822   2.047 -0.0670 -0.1216  0.6914
 2310SOL    HW1 7173   1.614   4.894   2.001 -0.6391  0.4525  1.0446
 2310SOL    HW2 7174   1.574   4.847   2.139  0.0299 -0.7132  0.8546
 2311SOL     OW 7175   3.165   1.017   0.648 -0.1640  0.1946  0.4211
 2311SOL    HW1 7176   3.198   1.006   0.559 -1.9324 -3.0184 -0.0114
 2311SOL    HW2 7177   3.174   0.930   0.688 -3.1871  0.4204  1.9174
 2312SOL     OW 7178   4.519   1.468   1.034 -0.3953 -0.1404  0.2421
 2312SOL    HW1 7179   4.429   1.440   1.048 -0.5380  0.2877  0.1890
 2312SOL    HW2 7180   4.570   1.387   1.040 -1.0079 -0.7487 -1.8871
 2313SOL     OW 7181   0.270   2.964   0.161  0.2039 -0.1887  0.5734
 2313SOL    HW1 7182   0.210   3.036   0.145 -0.3323 -0.6732  0.3806
 2313SOL    HW2 7183   0.215   2.893   0.194  0.8080 -0.3105  1.3590
 2314SOL     OW 7184   5.606   2.202   1.584  0.0572  0.2282 -0.2009
 2314SOL    HW1 7185   5.626   2.119   1.627  2.3045 -0.3931 -2.2019
 2314SOL    HW2 7186   5.679   2.260   1.608 -0.7878  1.2162  0.0875
 2315SOL     OW 7187   2.185   2.844   0.574 -0.0915  0.2640 -0.1703
 2315SOL    HW1 7188   2.263   2.791   0.591 -0.0350 -0.7777 -3.1770
 2315SOL    HW2 7189   2.111   2.786   0.595 -0.0766  0.4662  0.4773
 2316SOL     OW 7190   1.969   1.796   1.963 -0.5388  0.0775  0.2960
 2316SOL    HW1 7191   1.874   1.809   1.968 -0.6428 -0.7589  0.7401
 2316SOL    HW2 7192   1.987   1.726   2.026  0.6587  1.5838  1.7222
 2317SOL     OW 7193   2.073   3.397   1.126  0.3419  0.1406 -0.1946
 2317SOL    HW1 7194   2.032   3.332   1.183 -0.4657  1.9868  1.4773
 2317SOL    HW2 7195   2.037   3.380   1.040  0.8712 -2.1700 -0.0105
 2318SOL     OW 7196   3.545   2.965   1.171 -0.0379 -0.1341 -0.2633
 2318SOL    HW1 7197   3.475   3.013   1.127 -0.3927  0.0977  0.5404
 2318SOL    HW2 7198   3.571   3.021   1.244  1.0766 -0.1614 -0.6147
 2319SOL     OW 7199   2.327   4.004   1.171  0.3861  0.1986  0.2911
 2319SOL    HW1 7200   2.297   4.038   1.087  1.6374  1.2517  0.2337
 2319SOL    HW2 7201   2.294   4.067   1.235  0.4482  0.0533  0.4645
 2320SOL     OW 7202   6.854   4.809   3.328 -0.3593  0.2564 -0.1342
 2320SOL    HW1 7203   6.885   4.773   3.411 -0.4294 -0.8866 -0.5839
 2320SOL    HW2 7204   6.767   4.844   3.347 -0.3383  0.0838  0.2911
 2321SOL     OW 7205   5.289   3.724   1.761 -0.0283  0.7231  0.4143
 2321SOL    HW1 7206   5.222   3.786   1.788  0.5236  1.2655  0.5497
 2321SOL    HW2 7207   5.366   3.746   1.814  0.4416  0.4892 -0.1550
 2322SOL     OW 7208   0.966   4.084   0.345 -0.4353  0.3307 -0.4276
 2322SOL    HW1 7209   0.998   4.056   0.430 -0.3632  2.7160  0.4207
 2322SOL    HW2 7210   1.040   4.070   0.286  1.0361  2.3603  0.7698
 2323SOL     OW 7211   3.309   6.004   1.865  0.0781  0.9978 -0.3348
 2323SOL    HW1 7212   3.326   5.919   1.824 -1.2485 -0.7756  2.4966
 2323SOL    HW2 7213   3.365   6.066   1.817  0.2538 -1.2116 -3.2409
 2324SOL     OW 7214   2.478   2.453   2.858  0.3925  0.0329 -0.3106
 2324SOL    HW1 7215   2.457   2.372   2.812 -0.2285  0.4926 -0.8501
 2324SOL    HW2 7216   2.409   2.462   2.923  0.3568  0.2249 -0.3746
 2325SOL     OW 7217   5.299   1.633   2.150 -0.0151  0.0005  0.6608
 2325SOL    HW1 7218   5.204   1.641   2.138  0.1757  0.1614 -0.9997
 2325SOL    HW2 7219   5.323   1.708   2.204 -0.5030  1.4833 -1.0810
 2326SOL     OW 7220   5.447   1.249   1.600  0.5463  0.1457 -0.3733
 2326SOL    HW1 7221   5.392   1.173   1.578 -0.0529  0.3130  0.4705
 2326SOL    HW2 7222   5.531   1.232   1.557  0.4009 -0.9681 -0.2371
 2327SOL     OW 7223   4.422   0.788   0.390  0.3612 -0.2190  0.2761
 2327SOL    HW1 7224   4.344   0.735   0.406 -0.5339  0.5761 -1.2151
 2327SOL    HW2 7225   4.486   0.726   0.356  0.0151 -0.6893  0.4657
 2328SOL     OW 7226   0.836   1.184   1.118 -0.5698 -0.2245  0.6213
 2328SOL    HW1 7227   0.927   1.190   1.089 -0.0012 -4.3485  0.9601
 2328SOL    HW2 7228   0.787   1.234   1.052  1.6044 -0.9264 -1.6841
 2329SOL     OW 7229   6.011   6.527   3.178  0.4149  0.3668  0.5077
 2329SOL    HW1 7230   5.944   6.588   3.148 -1.4350 -0.8757  1.8760
 2329SOL    HW2 7231   5.962   6.448   3.203  2.7998 -2.5377 -2.9609
 2330SOL     OW 7232   3.210   4.611   2.351  0.0918  0.1637 -0.1799
 2330SOL    HW1 7233   3.207   4.516   2.346 -1.1372 -0.1134  3.1306
 2330SOL    HW2 7234   3.297   4.631   2.384 -0.4397 -0.0786  1.4641
 2331SOL     OW 7235   0.856   0.596   0.582 -0.0226 -0.2551 -0.0061
 2331SOL    HW1 7236   0.855   0.524   0.519  0.9772  0.1156 -0.4637
 2331SOL    HW2 7237   0.889   0.671   0.532 -0.6565  0.4215  0.5739
 2332SOL     OW 7238   0.973   4.938   1.157  0.0194 -0.2201  0.3106
 2332SOL    HW1 7239   1.050   4.891   1.188  1.0228  0.7337 -0.6459
 2332SOL    HW2 7240   0.909   4.869   1.138  0.4264 -0.9900  1.6057
 2333SOL     OW 7241   3.501   0.600   0.689 -0.3337  0.3788  0.2300
 2333SOL    HW1 7242   3.530   0.632   0.774  3.7945 -1.2683 -0.3456
 2333SOL    HW2 7243   3.467   0.512   0.707  0.0349  0.2388  0.2433
 2334SOL     OW 7244   4.375   2.983   1.131 -0.4138  0.2207  0.3583
 2334SOL    HW1 7245   4.463   2.964   1.100 -0.1548 -0.0589  1.2286
 2334SOL    HW2 7246   4.328   2.900   1.127 -0.5238  0.2870  0.2549
 2335SOL     OW 7247   5.595   4.170   2.689  0.5439  0.2492  0.4044
 2335SOL    HW1 7248   5.634   4.231   2.626  0.7593 -1.6362 -1.4134
 2335SOL    HW2 7249   5.615   4.207   2.775  2.0178  1.8807 -0.5759
 2336SOL     OW 7250   3.086   1.796   0.891 -0.3558  0.0975 -0.6775
 2336SOL    HW1 7251   3.004   1.827   0.928 -0.0624 -0.2939  0.3454
 2336SOL    HW2 7252   3.086   1.828   0.801 -1.3843  0.5386 -0.5311
 2337SOL     OW 7253   5.185   2.323   2.055 -0.6934  0.5027  0.0518
 2337SOL    HW1 7254   5.194   2.227   2.051 -1.2529  0.4633 -0.3218
 2337SOL    HW2 7255   5.144   2.346   1.972  1.3325  1.2958 -0.7890
 2338SOL     OW 7256   5.157   4.089   3.197  0.2372  0.0041  0.2405
 2338SOL    HW1 7257   5.189   4.137   3.273  0.0585  1.7258 -0.7091
 2338SOL    HW2 7258   5.067   4.065   3.220  0.7220 -0.9787  1.1972
 2339SOL     OW 7259   3.136   1.638   0.577 -0.2566 -0.0421  0.2650
 2339SOL    HW1 7260   3.067   1.588   0.620 -1.3167  0.6231 -0.6228
 2339SOL    HW2 7261   3.191   1.572   0.535  0.8579 -0.7255  2.6266
 2340SOL     OW 7262   6.897   2.809   3.216 -0.1967 -0.6785  0.5662
 2340SOL    HW1 7263   6.935   2.797   3.129 -0.9318 -1.9884  0.3863
 2340SOL    HW2 7264   6.933   2.892   3.247  0.9746 -0.7435 -0.5149
 2341SOL     OW 7265   3.923   1.413   0.707  0.1699 -0.0236  0.6316
 2341SOL    HW1 7266   3.864   1.434   0.780 -1.2420  2.7569 -1.1232
 2341SOL    HW2 7267   3.963   1.497   0.683  1.6266 -1.0986 -0.9470
 2342SOL     OW 7268   2.014   1.603   1.521 -0.3991  0.3511 -0.5015
 2342SOL    HW1 7269   1.981   1.606   1.431 -1.6185  1.8506 -0.0282
 2342SOL    HW2 7270   1.984   1.518   1.554 -1.8363  0.7158 -0.8216
 2343SOL     OW 7271   0.655   4.165   0.662  0.1705 -0.3340 -0.6691
 2343SOL    HW1 7272   0.625   4.249   0.696  0.2065 -1.0027  1.1004
 2343SOL    HW2 7273   0.742   4.154   0.700 -0.3886 -1.7884  0.2418
 2344SOL     OW 7274   1.893   3.792   1.810 -0.4163  0.0518  0.1285
 2344SOL    HW1 7275   1.873   3.710   1.764 -0.1417  0.5111 -0.8446
 2344SOL    HW2 7276   1.971   3.772   1.862 -0.4795 -0.3658  0.0664
 2345SOL     OW 7277   3.541   5.071   3.140  0.1194  0.0805  0.1474
 2345SOL    HW1 7278   3.583   5.156   3.126  0.7023 -0.2031  0.1567
 2345SOL    HW2 7279   3.456   5.093   3.178  1.1733  0.5804  2.3490
 2346SOL     OW 7280   5.934   5.284   3.136  0.5348 -0.1653 -0.0246
 2346SOL    HW1 7281   6.028   5.277   3.155  0.5953 -1.2306 -0.6449
 2346SOL    HW2 7282   5.893   5.219   3.193 -0.1149  1.8561  1.9476
 2347SOL     OW 7283   2.677   5.022   2.576  0.3788 -0.8103  0.2027
 2347SOL    HW1 7284   2.645   4.994   2.662  1.5431 -2.4336  0.1583
 2347SOL    HW2 7285   2.701   5.114   2.588 -1.3109 -0.4383  1.0483
 2348SOL     OW 7286   6.452   6.430   2.534 -0.0319  0.0038  0.3290
 2348SOL    HW1 7287   6.435   6.357   2.475  0.1365 -0.0935  0.3997
 2348SOL    HW2 7288   6.376   6.487   2.524  1.4273  1.6569 -2.4292
 2349SOL     OW 7289   1.231   2.594   1.180  1.0254 -0.0105  0.0198
 2349SOL    HW1 7290   1.248   2.685   1.205 -0.0131  0.1086  0.3682
 2349SOL    HW2 7291   1.266   2.587   1.091  1.0309  0.7675 -0.0516
 2350SOL     OW 7292   0.815   3.686   0.749  0.1445  0.3406  0.0868
 2350SOL    HW1 7293   0.874   3.613   0.769  1.3573  0.7704 -1.7106
 2350SOL    HW2 7294   0.795   3.724   0.835  0.1420 -1.5816  0.9870
 2351SOL     OW 7295   3.548   2.813   0.128 -0.0148 -0.2045  0.0998
 2351SOL    HW1 7296   3.577   2.796   0.218 -0.1478  2.7855  0.8119
 2351SOL    HW2 7297   3.455   2.791   0.129  0.1728 -1.0232  0.4211
 2352SOL     OW 7298   5.611   3.563   2.927 -0.0794  0.0640  0.0394
 2352SOL    HW1 7299   5.542   3.587   2.864  0.0612  1.1946  0.3017
 2352SOL    HW2 7300   5.593   3.617   3.004  1.1925  0.4916  0.0563
 2353SOL     OW 7301   4.140   1.063   1.347 -0.0971  0.0547  0.3925
 2353SOL    HW1 7302   4.062   1.010   1.330  0.3823 -1.0526  1.4511
 2353SOL    HW2 7303   4.123   1.101   1.434 -0.2958  1.4181 -0.2215
 2354SOL     OW 7304   3.095   2.387   1.391  0.1608 -0.7047 -0.7378
 2354SOL    HW1 7305   3.190   2.392   1.392  0.1834 -1.0465 -1.0088
 2354SOL    HW2 7306   3.075   2.317   1.329 -0.2761 -0.4586 -0.8770
 2355SOL     OW 7307   5.668   2.055   2.548 -0.1475 -0.3544 -0.5993
 2355SOL    HW1 7308   5.647   2.148   2.553  0.1472 -0.2074 -1.8568
 2355SOL    HW2 7309   5.655   2.023   2.637 -0.5460  0.8230 -0.2168
 2356SOL     OW 7310   5.610   3.349   1.266 -0.1152  0.1476 -0.5065
 2356SOL    HW1 7311   5.566   3.401   1.333  0.9174 -0.4906  0.7194
 2356SOL    HW2 7312   5.540   3.297   1.226 -0.8389  0.9817 -0.3395
 2357SOL     OW 7313   3.017   5.646   1.893 -0.1877  0.0135 -0.2045
 2357SOL    HW1 7314   3.025   5.726   1.841  1.8749  0.1416  0.2446
 2357SOL    HW2 7315   3.020   5.576   1.828  0.2599  0.2307 -0.4239
 2358SOL     OW 7316   5.626   4.132   1.709 -0.6319 -0.6535 -0.3698
 2358SOL    HW1 7317   5.604   4.172   1.793 -1.7743  0.4389 -1.1470
 2358SOL    HW2 7318   5.615   4.203   1.645  0.5438 -1.3610 -1.4170
 2359SOL     OW 7319   1.694   3.755   2.341  0.1777  0.5434  0.7409
 2359SOL    HW1 7320   1.650   3.673   2.315 -1.9777  1.7233  0.4370
 2359SOL    HW2 7321   1.670   3.767   2.433 -2.1239  2.3338 -0.0221
 2360SOL     OW 7322   3.374   2.332   1.350 -0.0158  0.0454  0.5972
 2360SOL    HW1 7323   3.425   2.251   1.341 -0.2942 -0.1371  0.6587
 2360SOL    HW2 7324   3.350   2.356   1.261  1.1491  0.7619  0.4569
 2361SOL     OW 7325   4.277   1.360   1.128 -0.1740 -0.0151 -0.5890
 2361SOL    HW1 7326   4.242   1.354   1.217  0.7288 -0.4992 -0.2493
 2361SOL    HW2 7327   4.201   1.344   1.071 -0.3196 -2.3234  0.1410
 2362SOL     OW 7328   1.019   2.612   1.385  0.4819 -0.2893 -0.6586
 2362SOL    HW1 7329   0.927   2.624   1.410  0.0498  0.4670 -2.4458
 2362SOL    HW2 7330   1.016   2.550   1.312  1.1731  1.0912 -1.9155
 2363SOL     OW 7331   6.869   5.881   3.291 -0.0992 -0.0885  0.2011
 2363SOL    HW1 7332   6.914   5.814   3.240 -1.4713  0.3319 -1.6756
 2363SOL    HW2 7333   6.791   5.836   3.326 -1.2750  0.5631 -1.4515
 2364SOL     OW 7334   3.187   3.671   1.894  0.4231 -0.3026  0.2538
 2364SOL    HW1 7335   3.254   3.714   1.948 -1.0258  1.6876  0.6207
 2364SOL    HW2 7336   3.148   3.605   1.951  1.6752 -1.1020  0.2095
 2365SOL     OW 7337   2.686   0.648   0.090 -0.3395 -0.0450 -0.0562
 2365SOL    HW1 7338   2.699   0.657   0.184 -0.9095  0.3422 -0.0042
 2365SOL    HW2 7339   2.772   0.666   0.052  0.3536 -2.0182  0.4661
 2366SOL     OW 7340   2.934   5.047   2.838 -0.6530  0.6311  0.1245
 2366SOL    HW1 7341   2.925   5.125   2.783  0.3635  1.0291  0.4940
 2366SOL    HW2 7342   3.001   4.994   2.793 -1.5570 -0.1896 -0.2886
 2367SOL     OW 7343   5.241   3.491   3.188 -0.1620  0.0434  0.4014
 2367SOL    HW1 7344   5.263   3.567   3.242  0.2186 -0.7658  1.4102
 2367SOL    HW2 7345   5.169   3.449   3.234 -0.0771 -0.4601  0.0821
 2368SOL     OW 7346   5.088   4.461   3.219 -0.1998 -0.3952 -0.1006
 2368SOL    HW1 7347   5.026   4.533   3.225 -0.8944 -0.6192 -3.0595
 2368SOL    HW2 7348   5.088   4.436   3.126  0.2644 -3.9687  0.6937
 2369SOL     OW 7349   2.717   3.023   1.563  0.1245 -0.0299  0.1352
 2369SOL    HW1 7350   2.693   2.933   1.585 -2.7397  0.6575  0.1256
 2369SOL    HW2 7351   2.799   3.014   1.513 -0.2542 -2.6351 -0.1761
 2370SOL     OW 7352   2.965   1.197   0.613 -0.2113 -0.1411  0.0073
 2370SOL    HW1 7353   3.042   1.142   0.631  1.2293  0.7724 -2.7349
 2370SOL    HW2 7354   2.992   1.285   0.639 -0.7252  0.0112  0.0184
 2371SOL     OW 7355   3.235   5.405   2.538  0.2180  0.2238 -0.4364
 2371SOL    HW1 7356   3.286   5.336   2.495 -0.9880 -0.3824 -0.9388
 2371SOL    HW2 7357   3.231   5.475   2.473  1.7591  0.9739  0.2092
 2372SOL     OW 7358   5.291   2.601   1.108 -0.2499  0.2577 -0.1208
 2372SOL    HW1 7359   5.313   2.658   1.035  1.1628  0.1993  0.2197
 2372SOL    HW2 7360   5.376   2.573   1.143 -0.8988 -0.5753  0.8642
 2373SOL     OW 7361   5.154   5.519   2.243 -0.4313  0.0343  0.0111
 2373SOL    HW1 7362   5.073   5.527   2.194 -1.7708  0.7007  2.1838
 2373SOL    HW2 7363   5.169   5.606   2.279  0.6702 -0.3443  0.5073
 2374SOL     OW 7364   3.443   2.797   3.305  0.1934  0.5497  0.3353
 2374SOL    HW1 7365   3.464   2.704   3.298  0.8717  0.6083  1.3468
 2374SOL    HW2 7366   3.394   2.805   3.387  1.5075  1.2832  1.0891
 2375SOL     OW 7367   1.510   3.726   1.766  0.5335  0.0182 -0.2390
 2375SOL    HW1 7368   1.451   3.793   1.732  2.3902  0.9622 -1.8331
 2375SOL    HW2 7369   1.507   3.656   1.700 -0.4396 -0.9350  0.7869
 2376SOL     OW 7370   1.225   3.482   1.726 -0.9733 -0.2600 -0.0132
 2376SOL    HW1 7371   1.210   3.563   1.676 -0.6221  0.2622  0.7080
 2376SOL    HW2 7372   1.255   3.512   1.812 -2.5841 -1.1031  0.9040
 2377SOL     OW 7373   4.136   2.083   0.864 -0.2379 -0.1599 -0.0419
 2377SOL    HW1 7374   4.145   2.080   0.768 -0.8283 -2.0368 -0.0811
 2377SOL    HW2 7375   4.065   2.145   0.880 -1.8290 -1.6533 -1.0043
 2378SOL     OW 7376   3.777   6.858   3.055 -0.0781 -0.2109  0.0416
 2378SOL    HW1 7377   3.772   6.785   3.116 -1.2067  0.5803  0.9460
 2378SOL    HW2 7378   3.838   6.919   3.095 -2.6698  1.4473  1.7522
 2379SOL     OW 7379   2.445   5.622   2.636  0.4745 -0.1698 -0.2081
 2379SOL    HW1 7380   2.532   5.657   2.653  1.3824 -0.7707 -3.1040
 2379SOL    HW2 7381   2.458   5.528   2.629 -1.1670 -0.7984  2.9678
 2380SOL     OW 7382   6.147   5.838   2.731 -0.2471 -0.5544 -0.3014
 2380SOL    HW1 7383   6.241   5.840   2.746 -0.1518  0.4992 -0.9425
 2380SOL    HW2 7384   6.125   5.927   2.701 -2.1014  0.5593  3.6710
 2381SOL     OW 7385   4.146   3.682   3.200 -0.3079 -0.0236  0.2418
 2381SOL    HW1 7386   4.137   3.664   3.293 -2.5772 -1.2531 -0.1700
 2381SOL    HW2 7387   4.118   3.602   3.156 -0.5632  0.9803 -1.5284
 2382SOL     OW 7388   4.819   3.326   1.896 -0.1674 -0.3816  0.3445
 2382SOL    HW1 7389   4.875   3.262   1.853  1.8349  0.9642  0.8065
 2382SOL    HW2 7390   4.741   3.330   1.841  1.0565 -0.8388 -1.5312
 2383SOL     OW 7391   4.344   5.253   2.867  0.0471  0.5076  0.3123
 2383SOL    HW1 7392   4.300   5.182   2.914 -1.2480  0.0985 -1.3985
 2383SOL    HW2 7393   4.428   5.215   2.841 -1.1840 -1.0066 -1.8066
 2384SOL     OW 7394   5.258   4.389   2.747  0.3590 -0.0119  0.0564
 2384SOL    HW1 7395   5.341   4.428   2.772  0.1986  1.0895 -1.0044
 2384SOL    HW2 7396   5.250   4.408   2.654 -2.6207  3.0881  0.7116
 2385SOL     OW 7397   2.995   5.418   1.738 -0.0689 -0.0533 -0.0491
 2385SOL    HW1 7398   2.936   5.348   1.711  0.9864 -1.3488  0.8889
 2385SOL    HW2 7399   3.042   5.442   1.658  0.1870 -1.0481 -0.2100
 2386SOL     OW 7400   1.504   1.796   0.569  0.8346  0.5294  0.0833
 2386SOL    HW1 7401   1.465   1.746   0.497  1.1599  1.1075 -0.5077
 2386SOL    HW2 7402   1.500   1.887   0.540  2.3234  0.6378  0.1306
 2387SOL     OW 7403   3.044   5.661   2.168  0.0472 -0.0071 -0.2283
 2387SOL    HW1 7404   3.058   5.653   2.073 -1.4766  0.8208 -0.5625
 2387SOL    HW2 7405   3.033   5.754   2.182  1.9624  0.0729  1.0771
 2388SOL     OW 7406   1.207   4.786   0.337  0.1653  0.3036  0.2640
 2388SOL    HW1 7407   1.189   4.836   0.258  1.0827 -0.7981 -0.6726
 2388SOL    HW2 7408   1.121   4.761   0.371 -0.2257  0.3988 -0.6515
 2389SOL     OW 7409   5.163   3.530   2.152 -0.2444  0.0397 -0.4181
 2389SOL    HW1 7410   5.162   3.624   2.132 -1.4339  0.7005  2.3530
 2389SOL    HW2 7411   5.078   3.499   2.123  0.1588 -0.2296 -1.3571
 2390SOL     OW 7412   5.821   3.294   1.681 -0.3338 -0.5482  0.9064
 2390SOL    HW1 7413   5.817   3.277   1.587  0.2733 -0.7270  0.9035
 2390SOL    HW2 7414   5.891   3.358   1.691  0.0835 -1.0551  1.2961
 2391SOL     OW 7415   2.381   5.301   3.132  0.0017 -0.5826  0.1121
 2391SOL    HW1 7416   2.461   5.351   3.149  0.3053 -1.3468  0.9826
 2391SOL    HW2 7417   2.375   5.239   3.205  0.0955 -2.4217 -1.3773
 2392SOL     OW 7418   4.051   2.613   0.749 -0.1711 -0.8410 -0.2560
 2392SOL    HW1 7419   4.024   2.621   0.841  1.0828 -2.0445  0.2486
 2392SOL    HW2 7420   4.092   2.527   0.743  0.6008 -0.4109 -1.7384
 2393SOL     OW 7421   4.196   3.879   0.896 -0.1074  0.0132 -0.2227
 2393SOL    HW1 7422   4.182   3.972   0.878  2.5529  0.2405 -1.6555
 2393SOL    HW2 7423   4.118   3.836   0.862 -1.2104  1.6673  0.1112
 2394SOL     OW 7424   6.177   5.467   2.457  0.1030  0.3123  0.0085
 2394SOL    HW1 7425   6.106   5.506   2.508 -0.3015  0.3437 -0.5641
 2394SOL    HW2 7426   6.165   5.503   2.369  0.5042 -0.1032 -0.2168
 2395SOL     OW 7427   1.416   4.159   0.608  0.3840 -0.2510 -0.2170
 2395SOL    HW1 7428   1.452   4.234   0.560 -0.6580  1.1464  1.1240
 2395SOL    HW2 7429   1.440   4.084   0.554  0.5124  1.1181 -2.1815
 2396SOL     OW 7430   3.405   6.210   3.030  0.5576 -0.1785 -0.1276
 2396SOL    HW1 7431   3.387   6.277   2.963 -1.5513 -1.5618 -1.0842
 2396SOL    HW2 7432   3.321   6.200   3.076  0.9101 -1.9085  0.1976
 2397SOL     OW 7433   3.807   4.000   2.494  0.0148 -0.3657  0.0888
 2397SOL    HW1 7434   3.729   4.027   2.544  0.4789  0.6283  0.2901
 2397SOL    HW2 7435   3.811   4.062   2.421  0.2432 -0.8381 -0.3065
 2398SOL     OW 7436   1.937   3.553   2.157  0.1475 -0.2781 -0.1972
 2398SOL    HW1 7437   2.024   3.568   2.194  0.6641  1.9185 -2.0767
 2398SOL    HW2 7438   1.877   3.567   2.229  1.2348  0.8945  0.5190
 2399SOL     OW 7439   4.385   5.271   3.184  0.0993  0.5027 -0.6092
 2399SOL    HW1 7440   4.471   5.293   3.219  0.0066  0.3181 -0.2535
 2399SOL    HW2 7441   4.340   5.355   3.175 -1.0583  0.4144  2.8371
 2400SOL     OW 7442   4.269   5.849   2.267  0.2817  0.3609  0.1998
 2400SOL    HW1 7443   4.314   5.765   2.281  0.0174  0.0330 -0.8569
 2400SOL    HW2 7444   4.321   5.912   2.318  1.4197 -0.1727 -0.2466
 2401SOL     OW 7445   2.289   4.529   2.915  0.6283 -0.1714 -0.1601
 2401SOL    HW1 7446   2.264   4.621   2.910 -1.5292 -0.7449 -1.2693
 2401SOL    HW2 7447   2.209   4.481   2.893  1.3732 -2.3648  1.5056
 2402SOL     OW 7448   4.266   1.593   1.647 -0.1232  0.4915  0.0719
 2402SOL    HW1 7449   4.350   1.638   1.648 -0.3875  0.9922 -0.0439
 2402SOL    HW2 7450   4.207   1.652   1.600 -0.2223 -0.4174 -1.0152
 2403SOL     OW 7451   5.041   5.806   1.697 -0.0595  0.3794  0.2350
 2403SOL    HW1 7452   5.135   5.794   1.685  0.1348  1.2623  0.7786
 2403SOL    HW2 7453   5.025   5.897   1.673 -1.3040 -0.5330 -2.9089
 2404SOL     OW 7454   4.712   1.695   0.284 -0.0261  0.0066 -0.5447
 2404SOL    HW1 7455   4.709   1.729   0.195  1.3273 -1.7155 -1.2983
 2404SOL    HW2 7456   4.662   1.613   0.281  0.5575 -0.3918  0.1158
 2405SOL     OW 7457   4.801   1.832   1.762 -0.5653  0.0739 -0.6410
 2405SOL    HW1 7458   4.842   1.814   1.847 -1.2715  3.5819  0.6024
 2405SOL    HW2 7459   4.871   1.820   1.699  0.0246 -2.4854  0.3450
 2406SOL     OW 7460   3.763   2.105   2.726 -0.3009 -0.5539 -0.4929
 2406SOL    HW1 7461   3.811   2.037   2.775 -1.0158 -0.6737  0.0622
 2406SOL    HW2 7462   3.770   2.183   2.781  2.2233  0.4271 -2.0563
 2407SOL     OW 7463   5.286   3.859   1.488  0.6050 -0.3376  0.6892
 2407SOL    HW1 7464   5.266   3.821   1.574 -1.0993 -1.3891 -0.1272
 2407SOL    HW2 7465   5.200   3.881   1.451  1.1545 -1.7421 -1.5660
 2408SOL     OW 7466   1.527   4.517   0.848  0.1167  0.0256 -0.3687
 2408SOL    HW1 7467   1.432   4.509   0.842  0.0696  1.3843 -1.7057
 2408SOL    HW2 7468   1.555   4.433   0.886 -1.8222  0.6603  2.9013
 2409SOL     OW 7469   5.252   4.694   3.013 -0.7620 -0.1038  0.0284
 2409SOL    HW1 7470   5.274   4.716   2.923 -2.1995  0.1639 -0.2910
 2409SOL    HW2 7471   5.175   4.637   3.006 -0.0184 -1.2777  1.0340
 2410SOL     OW 7472   2.551   1.779   2.010 -0.3697 -0.1682 -0.1132
 2410SOL    HW1 7473   2.645   1.778   1.993 -0.4241 -0.2052 -0.4091
 2410SOL    HW2 7474   2.537   1.856   2.065 -0.6255  1.7297 -2.6694
 2411SOL     OW 7475   4.702   5.903   2.449  0.1881  0.4010 -0.3142
 2411SOL    HW1 7476   4.771   5.934   2.508  0.2770 -1.3849  0.6273
 2411SOL    HW2 7477   4.714   5.808   2.448 -2.1553  0.0516 -0.2480
 2412SOL     OW 7478   3.328   3.172   1.560  0.4509 -0.1993  0.3971
 2412SOL    HW1 7479   3.285   3.136   1.483 -0.0644 -0.6263  0.8773
 2412SOL    HW2 7480   3.411   3.124   1.566  0.8979  0.4543 -0.3868
 2413SOL     OW 7481   5.824   5.948   2.943  0.3480  0.1666  0.1562
 2413SOL    HW1 7482   5.892   6.013   2.965 -1.1397  1.8954 -0.1296
 2413SOL    HW2 7483   5.819   5.950   2.847 -0.3156  0.2966  0.1889
 2414SOL     OW 7484   4.728   2.062   2.007  0.6346 -0.3712  0.0592
 2414SOL    HW1 7485   4.659   2.059   2.073  1.2791 -0.7838  0.7344
 2414SOL    HW2 7486   4.743   1.970   1.984  0.2551 -0.2156 -0.8386
 2415SOL     OW 7487   2.147   5.292   1.019 -0.0154 -0.5974  0.6502
 2415SOL    HW1 7488   2.104   5.375   0.999 -0.3677 -0.5925  1.3882
 2415SOL    HW2 7489   2.086   5.225   0.990  0.0625 -0.5975  0.4857
 2416CL      CL 7490   3.093   4.096   0.063  0.3064 -0.4953 -0.3764
 2417CL      CL 7491   3.557   1.035   0.098  0.2247  0.0655 -0.2208
 2418CL      CL 7492   3.041   3.470   2.049  0.0584 -0.1221  0.0757
 2419CL      CL 7493   2.590   5.041   0.520  0.1037  0.0777 -0.0195
 2420CL      CL 7494   3.945   2.607   1.075  0.0863 -0.1671 -0.4150
   4.78497   4.78497   3.38349   0.00000   0.00000   0.00000   0.00000   2.39248   2.39248
