Martini peptide, lipids and water
  619
    1TRP     BB    1   2.061   2.341   2.184
    1TRP    SC1    2   2.249   2.148   2.225
    1TRP    SC2    3   2.276   1.953   2.366
    1TRP    SC3    4   2.381   2.085   2.426
    1TRP    SC4    5   2.489   2.260   2.467
    1TRP    SC5    6   2.513   2.092   2.593
    2ILE     BB    7   1.956   2.595   2.019
    2ILE    SC1    8   2.076   2.526   1.719
    3POPC   NC3    9   3.440  -0.221   3.886
    3POPC   PO4   10   3.547   0.041   3.985
    3POPC   GL1   11   3.653   0.304   4.084
    3POPC   GL2   12   3.760   0.566   4.183
    3POPC   C1A   13   3.867   0.828   4.282
    3POPC   D2A   14   3.974   1.090   4.381
    3POPC   C3A   15   4.080   1.353   4.480
    3POPC   C4A   16   4.187   1.615   4.579
    3POPC   C1B   17   4.294   1.877   4.678
    3POPC   C2B   18   4.400   2.140   4.778
    3POPC   C3B   19   4.507   2.402   4.877
    3POPC   C4B   20   4.614   2.664   4.976
    4POPC   NC3   21   4.657   2.093   3.270
    4POPC   PO4   22   4.428   1.901   3.249
    4POPC   GL1   23   4.199   1.708   3.227
    4POPC   GL2   24   3.970   1.515   3.206
    4POPC   C1A   25   3.741   1.323   3.185
    4POPC   D2A   26   3.512   1.130   3.164
    4POPC   C3A   27   3.283   0.937   3.143
    4POPC   C4A   28   3.054   0.744   3.122
    4POPC   C1B   29   2.826   0.552   3.101
    4POPC   C2B   30   2.597   0.359   3.080
    4POPC   C3B   31   2.368   0.166   3.059
    4POPC   C4B   32   2.139  -0.026   3.038
    5NA      NA   33   1.322   2.235   3.553
    6NA      NA   34   2.475   1.940   3.030
    7CL      CL   35   3.818   2.450   1.472
    8CL      CL   36   0.177   1.163   2.926
    9W        W   37   0.024   3.948   1.100
   10W        W   38   3.132   2.372   0.035
   11W        W   39   2.948   1.271   3.820
   12W        W   40   3.747   2.601   0.310
   13W        W   41   2.581   1.080   0.963
   14W        W   42   3.220   1.306   4.329
   15W        W   43   2.616   2.773   1.541
   16W        W   44   0.088   1.260   3.280
   17W        W   45   1.613   0.895   2.228
   18W        W   46   1.010   1.705   1.927
   19W        W   47   4.446   0.589   2.203
   20W        W   48   2.062   0.638   0.213
   21W        W   49   2.345   1.719   0.338
   22W        W   50   2.669   2.943   1.145
   23W        W   51   4.396   0.586   1.299
   24W        W   52   3.016   0.658   2.649
   25W        W   53   0.994   1.056   3.061
   26W        W   54   4.033   2.382   3.371
   27W        W   55   3.683   0.344   3.223
   28W        W   56   1.058   2.656   1.150
   29W        W   57   4.131   4.337   4.269
   30W        W   58   3.295   2.387   3.635
   31W        W   59   3.098   0.375   3.964
   32W        W   60   1.819   2.410   0.969
   33W        W   61   1.823   1.334   4.202
   34W        W   62   4.109   3.020   1.628
   35W        W   63   4.193   2.330   1.412
   36W        W   64   0.090   4.492   3.243
   37W        W   65   2.408   4.372   4.361
   38W        W   66   4.135   4.155   1.468
   39W        W   67   0.639   3.662   2.433
   40W        W   68   3.976   0.985   2.662
   41W        W   69   4.033   1.615   2.316
   42W        W   70   1.368   1.787   1.237
   43W        W   71   2.256   2.125   3.299
   44W        W   72   0.354   1.728   1.487
   45W        W   73   3.472   0.114   0.265
   46W        W   74   2.809   1.867   1.237
   47W        W   75   4.289   4.440   0.326
   48W        W   76   4.420   1.785   0.719
   49W        W   77   0.966   1.739   2.443
   50W        W   78   2.514   2.933   4.422
   51W        W   79   4.106   3.738   1.622
   52W        W   80   4.199   1.997   2.243
   53W        W   81   2.833   0.158   0.976
   54W        W   82   0.191   0.175   4.432
   55W        W   83   3.262   0.249   2.517
   56W        W   84   0.767   2.444   4.180
   57W        W   85   2.933   1.030   0.161
   58W        W   86   3.383   2.635   0.978
   59W        W   87   1.872   4.414   0.738
   60W        W   88   0.310   1.502   4.118
   61W        W   89   0.620   1.274   1.078
   62W        W   90   1.151   3.573   4.247
   63W        W   91   0.461   0.607   3.920
   64W        W   92   4.100   2.253   3.859
   65W        W   93   3.009   3.705   1.226
   66W        W   94   4.180   0.033   1.287
   67W        W   95   3.522   2.415   3.238
   68W        W   96   0.188   1.135   0.333
   69W        W   97   0.997   1.221   2.162
   70W        W   98   2.578   3.573   0.116
   71W        W   99   1.193   0.849   4.046
   72W        W  100   1.859   1.003   0.575
   73W        W  101   0.829   2.854   3.887
   74W        W  102   1.631   1.657   2.864
   75W        W  103   2.226   3.847   0.731
   76W        W  104   4.135   3.604   3.281
   77W        W  105   4.043   4.367   3.231
   78W        W  106   2.866   0.632   2.098
   79W        W  107   3.357   4.173   1.355
   80W        W  108   3.390   2.046   0.341
   81W        W  109   3.901   0.706   0.940
   82W        W  110   3.066   1.152   2.373
   83W        W  111   1.203   2.588   2.675
   84W        W  112   2.708   0.550   1.706
   85W        W  113   3.387   0.617   1.480
   86W        W  114   1.556   3.883   0.088
   87W        W  115   0.575   2.385   0.635
   88W        W  116   3.184   3.490   2.280
   89W        W  117   2.001   1.998   1.705
   90W        W  118   0.118   1.789   3.782
   91W        W  119   2.554   2.632   3.447
   92W        W  120   0.606   2.498   3.749
   93W        W  121   3.201   0.969   0.895
   94W        W  122   0.623   3.482   1.694
   95W        W  123   2.113   0.402   2.454
   96W        W  124   2.742   1.330   4.238
   97W        W  125   0.540   1.684   2.571
   98W        W  126   2.711   4.146   3.027
   99W        W  127   0.501   0.855   1.488
  100W        W  128   0.261   3.834   2.559
  101W        W  129   1.702   4.305   1.532
  102W        W  130   3.970   0.044   0.802
  103W        W  131   3.344   0.313   1.942
  104W        W  132   1.542   0.636   0.264
  105W        W  133   3.709   1.906   4.339
  106W        W  134   4.275   3.234   3.812
  107W        W  135   4.343   1.332   1.955
  108W        W  136   0.755   2.480   2.533
  109W        W  137   1.652   0.832   4.023
  110W        W  138   2.787   3.916   0.644
  111W        W  139   1.180   1.650   0.041
  112W        W  140   2.247   1.356   3.322
  113W        W  141   1.865   3.427   0.070
  114W        W  142   2.578   0.260   3.770
  115W        W  143   3.945   0.057   2.668
  116W        W  144   2.494   0.625   0.049
  117W        W  145   2.139   0.840   1.510
  118W        W  146   1.856   2.135   0.604
  119W        W  147   3.663   1.916   3.145
  120W        W  148   0.406   1.205   2.483
  121W        W  149   2.986   2.083   2.406
  122W        W  150   3.228   0.248   0.603
  123W        W  151   0.639   1.824   3.263
  124W        W  152   0.188   3.184   1.387
  125W        W  153   3.638   1.398   2.515
  126W        W  154   3.917   3.886   0.356
  127W        W  155   1.945   1.818   4.070
  128W        W  156   2.264   1.310   3.978
  129W        W  157   3.524   3.491   3.894
  130W        W  158   0.562   3.449   4.082
  131W        W  159   4.402   1.652   1.478
  132W        W  160   3.355   3.360   1.661
  133W        W  161   3.763   3.142   3.208
  134W        W  162   2.715   2.331   4.403
  135W        W  163   1.390   0.837   3.192
  136W        W  164   1.904   0.922   2.783
  137W        W  165   1.175   3.593   2.558
  138W        W  166   2.534   1.791   0.827
  139W        W  167   0.879   2.041   1.608
  140W        W  168   4.251   2.740   0.903
  141W        W  169   1.857   1.778   3.216
  142W        W  170   2.171   0.108   0.438
  143W        W  171   1.486   3.821   2.002
  144W        W  172   0.172   3.007   0.998
  145W        W  173   3.178   1.482   3.229
  146W        W  174   0.818   3.107   4.269
  147W        W  175   1.842   0.195   3.207
  148W        W  176   4.303   3.340   4.458
  149W        W  177   1.688   2.767   2.356
  150W        W  178   1.204   2.371   0.837
  151W        W  179   2.750   1.695   3.135
  152W        W  180   2.104   0.555   3.043
  153W        W  181   2.614   1.008   0.489
  154W        W  182   2.142   2.972   0.785
  155W        W  183   1.152   0.163   1.290
  156W        W  184   2.248   1.548   2.430
  157W        W  185   0.055   4.223   1.780
  158W        W  186   0.193   0.596   0.901
  159W        W  187   2.348   3.241   3.817
  160W        W  188   1.530   4.415   2.924
  161W        W  189   0.783   2.865   1.531
  162W        W  190   2.649   3.283   3.247
  163W        W  191   3.350   3.695   2.977
  164W        W  192   1.515   3.274   1.548
  165W        W  193   4.020   4.096   2.427
  166W        W  194   1.529   0.078   3.601
  167W        W  195   3.285   2.212   1.503
  168W        W  196   3.911   2.995   0.632
  169W        W  197   0.817   2.608   3.048
  170W        W  198   0.976   0.281   3.873
  171W        W  199   2.057   2.211   1.312
  172W        W  200   0.444   4.214   0.363
  173W        W  201   3.215   2.681   2.808
  174W        W  202   2.502   2.163   1.721
  175W        W  203   1.282   3.649   3.026
  176W        W  204   2.988   1.700   0.224
  177W        W  205   2.604   4.121   1.226
  178W        W  206   4.210   3.531   2.760
  179W        W  207   0.910   3.515   3.252
  180W        W  208   3.784   4.028   1.139
  181W        W  209   3.703   4.045   3.706
  182W        W  210   4.252   2.841   2.457
  183W        W  211   0.930   4.217   2.498
  184W        W  212   3.645   3.772   0.049
  185W        W  213   0.246   2.773   1.472
  186W        W  214   0.435   3.356   2.766
  187W        W  215   3.224   3.830   3.818
  188W        W  216   1.265   3.788   0.835
  189W        W  217   2.381   2.045   3.766
  190W        W  218   4.290   0.412   2.746
  191W        W  219   3.740   0.619   3.543
  192W        W  220   3.915   0.848   1.555
  193W        W  221   0.519   4.214   1.956
  194W        W  222   1.800   1.166   1.317
  195W        W  223   0.819   0.802   2.610
  196W        W  224   0.663   0.792   1.070
  197W        W  225   0.308   2.281   4.056
  198W        W  226   1.001   1.503   3.500
  199W        W  227   0.746   4.013   0.948
  200W        W  228   0.125   3.392   3.098
  201W        W  229   1.588   2.187   2.679
  202W        W  230   1.658   1.343   0.182
  203W        W  231   2.001   2.493   2.708
  204W        W  232   1.961   2.609   4.313
  205W        W  233   1.532   2.918   0.768
  206W        W  234   3.563   1.213   0.741
  207W        W  235   3.760   0.414   1.538
  208W        W  236   3.064   0.048   4.351
  209W        W  237   2.612   1.200   3.461
  210W        W  238   4.228   1.329   3.838
  211W        W  239   3.586   4.039   2.303
  212W        W  240   2.209   2.168   4.492
  213W        W  241   0.888   1.620   1.520
  214W        W  242   2.346   1.092   2.211
  215W        W  243   2.842   4.180   4.017
  216W        W  244   0.308   2.628   3.455
  217W        W  245   2.595   3.311   2.267
  218W        W  246   2.983   2.016   2.943
  219W        W  247   1.673   2.287   1.505
  220W        W  248   2.204   1.089   0.184
  221W        W  249   4.348   2.066   2.736
  222W        W  250   0.080   3.794   3.799
  223W        W  251   1.624   1.461   0.979
  224W        W  252   0.266   2.144   0.983
  225W        W  253   0.095   2.395   2.266
  226W        W  254   1.341   2.041   1.687
  227W        W  255   3.773   1.386   1.452
  228W        W  256   2.933   2.497   2.067
  229W        W  257   0.269   2.871   0.042
  230W        W  258   1.364   1.217   2.661
  231W        W  259   0.491   3.027   1.812
  232W        W  260   0.481   2.548   0.208
  233W        W  261   1.819   2.692   3.845
  234W        W  262   1.537   3.957   1.204
  235W        W  263   1.471   4.032   3.398
  236W        W  264   0.048   0.677   4.237
  237W        W  265   4.240   1.297   0.597
  238W        W  266   1.698   0.897   3.500
  239W        W  267   0.886   1.820   0.674
  240W        W  268   1.749   3.718   2.333
  241W        W  269   0.230   4.288   1.305
  242W        W  270   3.676   0.666   0.417
  243W        W  271   3.901   1.806   0.644
  244W        W  272   1.017   0.962   0.894
  245W        W  273   2.875   2.222   3.419
  246W        W  274   4.213   1.518   1.004
  247W        W  275   0.380   0.746   2.481
  248W        W  276   0.352   3.987   3.306
  249W        W  277   2.462   3.944   1.771
  250W        W  278   3.046   2.728   0.445
  251W        W  279   3.649   2.245   2.699
  252W        W  280   2.914   0.549   0.708
  253W        W  281   0.593   4.257   4.394
  254W        W  282   3.382   3.445   0.933
  255W        W  283   1.040   2.892   0.801
  256W        W  284   3.537   1.082   0.274
  257W        W  285   0.504   1.394   0.624
  258W        W  286   1.025   2.902   2.035
  259W        W  287   0.979   0.038   1.858
  260W        W  288   0.972   0.631   0.121
  261W        W  289   1.315   1.283   1.279
  262W        W  290   3.243   0.944   3.596
  263W        W  291   0.858   0.846   3.645
  264W        W  292   0.061   3.560   2.017
  265W        W  293   2.881   0.969   1.475
  266W        W  294   3.594   2.759   1.680
  267W        W  295   0.264   2.831   2.989
  268W        W  296   1.171   0.174   0.454
  269W        W  297   3.093   4.124   2.761
  270W        W  298   2.743   1.597   1.859
  271W        W  299   0.591   3.127   1.128
  272W        W  300   1.286   1.813   3.362
  273W        W  301   2.351   2.797   2.921
  274W        W  302   1.590   1.795   1.969
  275W        W  303   2.076   4.381   2.495
  276W        W  304   2.117   3.960   3.335
  277W        W  305   3.349   4.309   1.884
  278W        W  306   1.126   0.556   2.850
  279W        W  307   1.968   2.849   1.577
  280W        W  308   3.374   0.752   2.024
  281W        W  309   4.022   2.735   3.728
  282W        W  310   0.073   0.861   1.707
  283W        W  311   1.341   2.719   3.109
  284W        W  312   1.774   2.689   0.315
  285W        W  313   1.051   4.213   1.273
  286W        W  314   1.732   3.289   2.391
  287W        W  315   1.704   0.419   0.704
  288W        W  316   4.451   4.423   2.220
  289W        W  317   2.634   2.668   4.078
  290W        W  318   3.096   3.377   3.210
  291W        W  319   3.952   2.345   2.293
  292W        W  320   0.846   3.765   3.780
  293W        W  321   4.148   3.727   4.061
  294W        W  322   0.298   3.091   3.695
  295W        W  323   1.857   3.463   1.141
  296W        W  324   1.448   0.007   2.037
  297W        W  325   2.957   3.380   0.720
  298W        W  326   3.293   0.299   3.025
  299W        W  327   4.182   3.459   1.030
  300W        W  328   2.791   3.738   4.017
  301W        W  329   0.099   4.024   0.078
  302W        W  330   1.889   3.763   3.910
  303W        W  331   1.961   0.108   0.060
  304W        W  332   4.174   2.381   0.018
  305W        W  333   1.118   1.928   4.217
  306W        W  334   1.932   2.851   3.329
  307W        W  335   1.879   0.259   1.308
  308W        W  336   3.236   2.857   3.635
  309W        W  337   1.229   3.140   3.481
  310W        W  338   1.350   1.387   4.047
  311W        W  339   2.055   1.579   1.964
  312W        W  340   0.277   1.261   1.596
  313W        W  341   3.601   3.127   4.186
  314W        W  342   2.757   3.196   3.908
  315W        W  343   2.170   3.429   2.627
  316W        W  344   1.074   0.341   2.148
  317W        W  345   4.263   2.646   1.876
  318W        W  346   0.967   4.371   3.436
  319W        W  347   2.275   3.364   4.221
  320W        W  348   3.187   3.163   4.373
  321W        W  349   2.515   0.522   1.248
  322W        W  350   4.011   1.807   2.855
  323W        W  351   4.069   1.695   4.175
  324W        W  352   3.323   2.959   2.081
  325W        W  353   0.232   3.371   0.650
  326W        W  354   1.999   0.495   4.268
  327W        W  355   1.382   2.732   1.700
  328W        W  356   0.480   0.255   0.406
  329W        W  357   2.685   1.319   2.788
  330W        W  358   1.335   0.953   1.651
  331W        W  359   2.960   2.384   0.673
  332W        W  360   3.423   0.050   0.948
  333W        W  361   2.495   3.947   3.733
  334W        W  362   0.461   1.683   0.949
  335W        W  363   1.603   1.791   0.520
  336W        W  364   2.920   3.273   0.291
  337W        W  365   1.747   0.437   2.842
  338W        W  366   0.787   1.260   0.021
  339W        W  367   0.308   2.646   2.551
  340W        W  368   3.000   3.228   1.274
  341W        W  369   2.692   2.324   1.085
  342W        W  370   1.433   2.210   0.493
  343W        W  371   0.037   4.484   4.003
  344W        W  372   0.949   2.044   3.496
  345W        W  373   4.292   3.919   0.661
  346W        W  374   1.513   3.143   1.957
  347W        W  375   3.064   1.023   2.871
  348W        W  376   2.855   2.743   3.103
  349W        W  377   3.795   3.918   2.798
  350W        W  378   2.702   2.577   2.663
  351W        W  379   0.326   0.816   3.396
  352W        W  380   4.384   0.751   0.557
  353W        W  381   0.126   2.971   2.312
  354W        W  382   3.002   0.807   4.233
  355W        W  383   1.070   4.085   3.102
  356W        W  384   3.584   1.858   1.939
  357W        W  385   3.077   1.563   2.502
  358W        W  386   1.132   3.889   2.246
  359W        W  387   1.931   3.388   1.909
  360W        W  388   2.348   4.469   2.076
  361W        W  389   3.959   2.975   1.147
  362W        W  390   1.951   3.069   4.026
  363W        W  391   3.877   2.389   1.788
  364W        W  392   2.827   3.587   2.583
  365W        W  393   3.606   4.058   0.717
  366W        W  394   1.788   1.800   1.181
  367W        W  395   1.568   4.295   4.251
  368W        W  396   2.552   0.065   0.660
  369W        W  397   1.755   0.522   1.844
  370W        W  398   2.569   2.872   2.052
  371W        W  399   3.937   3.602   2.373
  372W        W  400   3.716   2.670   4.154
  373W        W  401   2.936   0.102   2.020
  374W        W  402   1.239   3.836   1.638
  375W        W  403   2.006   0.054   1.800
  376W        W  404   1.426   3.159   0.249
  377W        W  405   0.155   3.168   4.234
  378W        W  406   4.176   2.768   0.245
  379W        W  407   0.574   0.271   2.110
  380W        W  408   2.214   3.406   1.375
  381W        W  409   2.367   3.157   1.728
  382W        W  410   3.303   0.508   4.355
  383W        W  411   3.348   3.061   0.525
  384W        W  412   1.130   1.245   0.544
  385W        W  413   1.267   2.221   2.980
  386W        W  414   2.365   4.458   1.387
  387W        W  415   3.844   2.261   0.706
  388W        W  416   3.459   3.766   1.598
  389W        W  417   0.469   1.767   2.095
  390W        W  418   0.732   4.488   2.924
  391W        W  419   2.902   3.562   1.877
  392W        W  420   0.731   0.348   3.214
  393W        W  421   2.529   4.024   0.247
  394W        W  422   3.654   1.570   1.025
  395W        W  423   2.724   4.108   2.142
  396W        W  424   1.164   3.192   2.410
  397W        W  425   4.396   2.062   1.684
  398W        W  426   0.742   1.970   0.178
  399W        W  427   1.217   0.293   3.232
  400W        W  428   0.118   0.510   0.273
  401W        W  429   1.397   1.973   3.870
  402W        W  430   2.445   4.416   3.234
  403W        W  431   2.981   1.829   0.787
  404W        W  432   3.580   1.970   3.678
  405W        W  433   0.513   4.442   2.567
  406W        W  434   2.792   1.732   3.627
  407W        W  435   3.928   0.885   2.115
  408W        W  436   0.549   2.994   0.563
  409W        W  437   1.090   2.700   4.399
  410W        W  438   2.492   1.795   4.406
  411W        W  439   3.500   2.494   2.163
  412W        W  440   4.001   0.227   4.381
  413W        W  441   3.023   3.994   0.131
  414W        W  442   0.884   3.516   1.037
  415W        W  443   0.496   3.721   0.359
  416W        W  444   2.813   2.083   0.250
  417W        W  445   3.689   2.709   2.622
  418W        W  446   0.204   1.859   3.050
  419W        W  447   0.537   3.446   3.621
  420W        W  448   3.830   3.257   0.150
  421W        W  449   3.730   4.386   1.421
  422W        W  450   2.447   2.323   0.565
  423W        W  451   0.905   4.384   0.731
  424W        W  452   3.555   1.557   0.332
  425W        W  453   2.301   3.573   3.360
  426W        W  454   1.272   1.173   3.593
  427W        W  455   4.311   0.276   3.675
  428W        W  456   0.847   1.517   4.029
  429W        W  457   2.464   1.294   1.634
  430W        W  458   0.931   1.658   1.092
  431W        W  459   0.620   2.325   2.153
  432W        W  460   0.699   0.005   1.101
  433W        W  461   2.225   2.911   2.452
  434W        W  462   1.797   1.169   1.784
  435W        W  463   4.437   2.134   3.544
  436W        W  464   0.331   0.182   3.667
  437W        W  465   3.945   0.034   2.157
  438W        W  466   3.310   2.657   4.016
  439W        W  467   1.020   3.346   1.991
  440W        W  468   0.571   0.785   1.915
  441W        W  469   0.427   1.321   2.000
  442W        W  470   2.088   3.906   4.341
  443W        W  471   0.296   1.363   3.698
  444W        W  472   1.230   0.303   4.250
  445W        W  473   0.687   0.476   1.480
  446W        W  474   4.439   0.633   3.322
  447W        W  475   4.129   4.153   3.831
  448W        W  476   1.359   2.981   2.751
  449W        W  477   1.428   2.905   1.218
  450W        W  478   2.466   3.500   0.946
  451W        W  479   1.942   4.434   3.720
  452W        W  480   2.936   1.372   0.741
  453W        W  481   4.317   0.850   2.909
  454W        W  482   0.648   4.411   1.574
  455W        W  483   2.986   0.454   0.276
  456W        W  484   3.368   1.521   1.605
  457W        W  485   2.011   1.499   0.750
  458W        W  486   1.611   1.362   3.201
  459W        W  487   2.293   2.933   0.362
  460W        W  488   0.250   0.497   1.544
  461W        W  489   2.639   0.991   1.907
  462W        W  490   4.284   1.118   1.541
  463W        W  491   1.779   3.443   3.398
  464W        W  492   1.367   1.029   0.146
  465W        W  493   2.968   0.470   1.252
  466W        W  494   3.115   1.696   4.050
  467W        W  495   2.497   0.620   0.661
  468W        W  496   1.239   2.637   3.710
  469W        W  497   3.762   4.122   4.236
  470W        W  498   3.207   4.057   4.234
  471W        W  499   3.335   3.176   2.712
  472W        W  500   3.926   0.037   3.721
  473W        W  501   0.504   1.122   3.159
  474W        W  502   3.056   0.539   3.360
  475W        W  503   4.442   2.889   3.441
  476W        W  504   2.592   0.468   2.658
  477W        W  505   1.272   3.398   0.658
  478W        W  506   0.935   3.951   0.325
  479W        W  507   1.006   2.318   3.856
  480W        W  508   2.926   3.101   2.463
  481W        W  509   1.526   2.342   4.229
  482W        W  510   3.973   3.128   2.136
  483W        W  511   0.036   4.372   2.684
  484W        W  512   1.950   1.927   2.212
  485W        W  513   2.245   0.600   2.000
  486W        W  514   0.818   0.972   0.455
  487W        W  515   0.119   1.448   2.794
  488W        W  516   0.381   0.872   0.605
  489W        W  517   1.736   1.390   3.650
  490W        W  518   0.759   0.596   0.683
  491W        W  519   4.313   2.329   0.611
  492W        W  520   4.013   0.427   0.507
  493W        W  521   0.508   3.973   2.873
  494W        W  522   1.897   2.430   3.474
  495W        W  523   2.422   3.804   2.246
  496W        W  524   0.025   0.984   3.947
  497W        W  525   3.537   4.109   3.276
  498W        W  526   0.138   4.284   0.657
  499W        W  527   1.350   0.466   3.781
  500W        W  528   1.026   4.096   4.340
  501W        W  529   1.218   0.603   1.110
  502W        W  530   2.957   1.366   1.343
  503W        W  531   0.178   1.814   0.243
  504W        W  532   0.567   3.004   2.326
  505W        W  533   3.983   2.040   1.145
  506W        W  534   0.810   3.389   0.092
  507W        W  535   2.286   1.693   1.168
  508W        W  536   0.362   2.175   2.528
  509W        W  537   2.392   3.791   2.863
  510W        W  538   3.638   1.317   1.972
  511W        W  539   0.697   2.343   1.126
  512W        W  540   3.783   1.883   1.533
  513W        W  541   0.894   3.688   2.865
  514W        W  542   3.653   2.821   3.469
  515W        W  543   1.093   2.607   0.423
  516W        W  544   2.720   0.909   2.482
  517W        W  545   1.956   3.905   1.300
  518W        W  546   4.291   2.911   4.112
  519W        W  547   0.022   3.110   2.743
  520W        W  548   0.303   3.603   1.055
  521W        W  549   3.780   0.474   2.163
  522W        W  550   2.256   2.631   1.231
  523W        W  551   2.437   0.700   3.874
  524W        W  552   1.517   3.107   4.300
  525W        W  553   1.441   0.887   0.824
  526W        W  554   0.933   4.499   4.460
  527W        W  555   1.401   2.339   2.270
  528W        W  556   0.687   4.318   3.899
  529W        W  557   1.877   1.231   2.207
  530W        W  558   1.041   2.414   1.943
  531W        W  559   1.734   4.176   2.095
  532W        W  560   4.087   2.786   3.200
  533W        W  561   1.435   4.001   2.690
  534W        W  562   2.052   4.141   0.420
  535W        W  563   3.568   3.636   3.376
  536W        W  564   2.540   0.031   2.789
  537W        W  565   1.827   3.602   2.961
  538W        W  566   0.003   3.609   1.364
  539W        W  567   2.460   0.627   3.344
  540W        W  568   2.725   4.387   1.651
  541W        W  569   4.306   4.015   2.934
  542W        W  570   1.408   4.377   0.832
  543W        W  571   3.449   2.987   1.256
  544W        W  572   1.404   3.779   3.822
  545W        W  573   0.167   1.373   1.204
  546W        W  574   4.471   4.129   3.490
  547W        W  575   0.069   0.988   2.150
  548W        W  576   3.234   0.112   3.464
  549W        W  577   0.662   2.893   2.767
  550W        W  578   3.130   3.812   3.374
  551W        W  579   1.050   1.787   2.895
  552W        W  580   4.031   2.388   2.919
  553W        W  581   2.021   0.363   3.817
  554W        W  582   2.929   4.485   0.250
  555W        W  583   2.034   3.486   0.540
  556W        W  584   3.461   3.482   0.401
  557W        W  585   3.963   3.516   0.640
  558W        W  586   0.198   2.329   1.404
  559W        W  587   3.255   3.587   4.256
  560W        W  588   4.216   4.490   1.788
  561W        W  589   0.350   3.279   0.201
  562W        W  590   3.600   0.685   2.760
  563W        W  591   4.459   3.652   0.264
  564W        W  592   2.974   2.049   1.760
  565W        W  593   3.808   3.596   1.923
  566W        W  594   2.297   2.745   3.803
  567W        W  595   3.217   2.231   4.060
  568W        W  596   4.494   0.086   0.966
  569W        W  597   4.059   0.722   0.142
  570W        W  598   3.779   1.242   3.943
  571W        W  599   0.933   4.079   1.909
  572W        W  600   0.497   0.773   4.319
  573W        W  601   2.582   2.900   0.709
  574W        W  602   3.112   0.048   1.577
  575W        W  603   1.280   4.498   3.942
  576W        W  604   2.158   0.840   0.899
  577W        W  605   0.355   3.674   4.417
  578W        W  606   3.685   3.481   1.269
  579W        W  607   3.195   1.693   1.954
  580W        W  608   2.727   2.075   4.010
  581W        W  609   3.496   1.049   2.313
  582W        W  610   4.286   1.161   0.161
  583W        W  611   1.644   3.917   0.633
  584W        W  612   1.609   0.475   3.421
  585W        W  613   0.503   2.050   3.613
  586W        W  614   0.754   2.835   3.435
  587W        W  615   0.861   3.582   0.572
  588W        W  616   4.308   1.087   1.087
  589W        W  617   2.799   4.284   3.472
  590W        W  618   1.665   0.661   1.296
  591W        W  619   2.045   2.329   3.957
   4.50000   4.50000   4.50000
