nonbonded test
   19
    1CHN     C1    1   1.267   1.567   2.588
    1CHN     C2    2   0.956   1.636   2.442
    1CHN     C3    3   0.645   1.704   2.296
    1CHN     C4    4   0.334   1.772   2.151
    1CHN     C5    5   0.023   1.840   2.005
    2CHN     C1    6   1.433   1.764   2.220
    2CHN     C2    7   1.306   2.034   2.402
    2CHN     C3    8   1.178   2.305   2.584
    2CHN     C4    9   1.050   2.575   2.765
    2CHN     C5   10   0.922   0.046   0.147
    3CHN     C1   11   0.533   0.677   0.084
    3CHN     C2   12   0.242   0.744   0.268
    3CHN     C3   13   2.752   0.811   0.451
    3CHN     C4   14   2.461   0.878   0.635
    3CHN     C5   15   2.171   0.945   0.819
    4SOP     S1   16   1.793   1.399   1.855
    5SOP     S1   17   1.281   0.779   2.793
    6SON     S1   18   2.788   2.353   1.982
    7SON     S1   19   0.883   0.643   0.809
   2.80000   2.80000   2.80000
