Protein in water
 2074
  221TRP      N    1   1.065   1.114   1.311
  221TRP     H1    2   0.978   1.157   1.332
  221TRP     H2    3   1.074   1.103   1.212
  221TRP     H3    4   1.070   1.024   1.355
  221TRP     CA    5   1.175   1.199   1.361
  221TRP     HA    6   1.162   1.206   1.460
  221TRP     CB    7   1.308   1.131   1.327
  221TRP    HB1    8   1.377   1.201   1.308
  221TRP    HB2    9   1.296   1.074   1.246
  221TRP     CG   10   1.362   1.043   1.436
  221TRP    CD1   11   1.326   0.916   1.462
  221TRP    HD1   12   1.261   0.862   1.409
  221TRP    NE1   13   1.393   0.871   1.575
  221TRP    HE1   14   1.382   0.779   1.614
  221TRP    CE2   15   1.476   0.968   1.626
  221TRP    CZ2   16   1.563   0.972   1.737
  221TRP    HZ2   17   1.573   0.892   1.796
  221TRP    CH2   18   1.635   1.090   1.763
  221TRP    HH2   19   1.697   1.094   1.841
  221TRP    CZ3   20   1.619   1.201   1.679
  221TRP    HZ3   21   1.671   1.285   1.698
  221TRP    CE3   22   1.532   1.197   1.569
  221TRP    HE3   23   1.521   1.277   1.511
  221TRP    CD2   24   1.458   1.080   1.540
  221TRP      C   25   1.169   1.342   1.305
  221TRP      O   26   1.184   1.438   1.380
  222ILE      N   27   1.136   1.358   1.176
  222ILE      H   28   1.116   1.277   1.121
  222ILE     CA   29   1.127   1.491   1.113
  222ILE     HA   30   1.213   1.537   1.132
  222ILE     CB   31   1.111   1.476   0.959
  222ILE     HB   32   1.032   1.417   0.943
  222ILE    CG2   33   1.085   1.611   0.892
  222ILE   HG21   34   1.075   1.598   0.793
  222ILE   HG22   35   1.001   1.651   0.928
  222ILE   HG23   36   1.162   1.673   0.909
  222ILE    CG1   37   1.237   1.410   0.898
  222ILE   HG11   38   1.263   1.332   0.955
  222ILE   HG12   39   1.311   1.477   0.899
  222ILE     CD   40   1.218   1.361   0.754
  222ILE    HD1   41   1.304   1.320   0.721
  222ILE    HD2   42   1.145   1.293   0.751
  222ILE    HD3   43   1.194   1.439   0.695
  222ILE      C   44   1.014   1.574   1.176
  222ILE    OC1   45   0.923   1.535   1.186
  222ILE    OC2   46   1.036   1.690   1.213
  223SOL     OW   47   1.736   0.839   0.257
  223SOL    HW1   48   1.777   0.781   0.322
  223SOL    HW2   49   1.643   0.831   0.274
  223SOL     MW   50   1.730   0.831   0.267
  224SOL     OW   51   1.602   0.771   1.252
  224SOL    HW1   52   1.557   0.838   1.303
  224SOL    HW2   53   1.690   0.807   1.238
  224SOL     MW   54   1.608   0.784   1.256
  225SOL     OW   55   0.530   1.022   0.486
  225SOL    HW1   56   0.620   0.997   0.470
  225SOL    HW2   57   0.526   1.115   0.463
  225SOL     MW   58   0.542   1.031   0.481
  226SOL     OW   59   1.646   1.725   0.628
  226SOL    HW1   60   1.658   1.671   0.706
  226SOL    HW2   61   1.683   1.673   0.557
  226SOL     MW   62   1.652   1.710   0.629
  227SOL     OW   63   1.025   1.610   1.629
  227SOL    HW1   64   1.066   1.646   1.550
  227SOL    HW2   65   1.060   1.521   1.636
  227SOL     MW   66   1.036   1.603   1.620
  228SOL     OW   67   1.582   1.165   1.233
  228SOL    HW1   68   1.503   1.130   1.191
  228SOL    HW2   69   1.609   1.237   1.177
  228SOL     MW   70   1.575   1.170   1.220
  229SOL     OW   71   0.814   0.478   0.499
  229SOL    HW1   72   0.789   0.566   0.527
  229SOL    HW2   73   0.811   0.481   0.403
  229SOL     MW   74   0.810   0.490   0.491
  230SOL     OW   75   0.256   0.506   0.427
  230SOL    HW1   76   0.288   0.594   0.409
  230SOL    HW2   77   0.244   0.504   0.522
  230SOL     MW   78   0.259   0.518   0.439
  231SOL     OW   79   0.334   0.919   1.328
  231SOL    HW1   80   0.397   0.866   1.279
  231SOL    HW2   81   0.315   0.993   1.271
  231SOL     MW   82   0.340   0.921   1.315
  232SOL     OW   83   0.655   0.261   0.514
  232SOL    HW1   84   0.713   0.337   0.516
  232SOL    HW2   85   0.590   0.282   0.447
  232SOL     MW   86   0.654   0.273   0.505
  233SOL     OW   87   0.742   1.188   0.689
  233SOL    HW1   88   0.822   1.191   0.741
  233SOL    HW2   89   0.770   1.155   0.603
  233SOL     MW   90   0.756   1.184   0.684
  234SOL     OW   91   0.767   1.529   1.592
  234SOL    HW1   92   0.851   1.555   1.631
  234SOL    HW2   93   0.791   1.473   1.518
  234SOL     MW   94   0.781   1.525   1.587
  235SOL     OW   95   0.519   0.692   0.680
  235SOL    HW1   96   0.504   0.612   0.731
  235SOL    HW2   97   0.601   0.727   0.714
  235SOL     MW   98   0.527   0.684   0.692
  236SOL     OW   99   0.856   1.378   1.365
  236SOL    HW1  100   0.820   1.444   1.305
  236SOL    HW2  101   0.784   1.316   1.378
  236SOL     MW  102   0.842   1.378   1.359
  237SOL     OW  103   0.661   0.518   1.057
  237SOL    HW1  104   0.567   0.514   1.075
  237SOL    HW2  105   0.691   0.427   1.066
  237SOL     MW  106   0.652   0.506   1.060
  238SOL     OW  107   0.407   0.932   0.961
  238SOL    HW1  108   0.362   0.939   0.877
  238SOL    HW2  109   0.387   1.015   1.005
  238SOL     MW  110   0.399   0.944   0.955
  239SOL     OW  111   0.104   1.778   0.836
  239SOL    HW1  112   0.193   1.770   0.871
  239SOL    HW2  113   0.068   1.690   0.841
  239SOL     MW  114   0.111   1.765   0.841
  240SOL     OW  115   1.369   1.170   0.205
  240SOL    HW1  116   1.287   1.206   0.171
  240SOL    HW2  117   1.437   1.213   0.154
  240SOL     MW  118   1.367   1.180   0.193
  241SOL     OW  119   0.368   1.305   0.871
  241SOL    HW1  120   0.344   1.358   0.947
  241SOL    HW2  121   0.424   1.363   0.819
  241SOL     MW  122   0.372   1.320   0.874
  242SOL     OW  123   0.930   0.949   0.681
  242SOL    HW1  124   0.844   0.936   0.721
  242SOL    HW2  125   0.983   0.876   0.713
  242SOL     MW  126   0.926   0.938   0.690
  243SOL     OW  127   0.338   1.601   1.466
  243SOL    HW1  128   0.246   1.577   1.451
  243SOL    HW2  129   0.382   1.518   1.483
  243SOL     MW  130   0.332   1.586   1.465
  244SOL     OW  131   0.921   1.311   0.398
  244SOL    HW1  132   0.898   1.373   0.466
  244SOL    HW2  133   0.878   1.229   0.424
  244SOL     MW  134   0.913   1.307   0.409
  245SOL     OW  135   1.794   0.312   0.854
  245SOL    HW1  136   1.731   0.292   0.923
  245SOL    HW2  137   1.784   0.241   0.791
  245SOL     MW  138   1.784   0.299   0.855
  246SOL     OW  139   0.418   0.284   0.366
  246SOL    HW1  140   0.392   0.246   0.282
  246SOL    HW2  141   0.355   0.354   0.382
  246SOL     MW  142   0.407   0.287   0.357
  247SOL     OW  143   0.253   1.245   0.403
  247SOL    HW1  144   0.201   1.313   0.359
  247SOL    HW2  145   0.250   1.171   0.343
  247SOL     MW  146   0.245   1.244   0.390
  248SOL     OW  147   0.915   1.708   0.181
  248SOL    HW1  148   0.870   1.724   0.264
  248SOL    HW2  149   0.846   1.673   0.123
  248SOL     MW  150   0.901   1.705   0.183
  249SOL     OW  151   1.850   0.481   0.156
  249SOL    HW1  152   1.759   0.483   0.184
  249SOL    HW2  153   1.895   0.543   0.214
  249SOL     MW  154   1.843   0.489   0.166
  250SOL     OW  155   1.595   1.084   0.506
  250SOL    HW1  156   1.505   1.084   0.541
  250SOL    HW2  157   1.588   1.130   0.423
  250SOL     MW  158   1.582   1.090   0.500
  251SOL     OW  159   0.136   1.599   1.130
  251SOL    HW1  160   0.119   1.545   1.207
  251SOL    HW2  161   0.124   1.689   1.160
  251SOL     MW  162   0.133   1.603   1.144
  252SOL     OW  163   0.927   0.530   1.771
  252SOL    HW1  164   1.017   0.531   1.738
  252SOL    HW2  165   0.886   0.455   1.729
  252SOL     MW  166   0.933   0.520   1.762
  253SOL     OW  167   1.502   1.062   0.898
  253SOL    HW1  168   1.505   0.996   0.829
  253SOL    HW2  169   1.587   1.105   0.894
  253SOL     MW  170   1.514   1.058   0.889
  254SOL     OW  171   1.122   0.665   0.467
  254SOL    HW1  172   1.148   0.689   0.378
  254SOL    HW2  173   1.104   0.572   0.463
  254SOL     MW  174   1.124   0.657   0.454
  255SOL     OW  175   1.787   1.285   0.318
  255SOL    HW1  176   1.743   1.326   0.393
  255SOL    HW2  177   1.844   1.353   0.283
  255SOL     MW  178   1.789   1.299   0.323
  256SOL     OW  179   0.707   0.334   1.721
  256SOL    HW1  180   0.717   0.260   1.661
  256SOL    HW2  181   0.743   0.303   1.804
  256SOL     MW  182   0.713   0.320   1.723
  257SOL     OW  183   0.443   1.701   0.636
  257SOL    HW1  184   0.475   1.789   0.614
  257SOL    HW2  185   0.396   1.673   0.558
  257SOL     MW  186   0.442   1.709   0.623
  258SOL     OW  187   1.827   0.063   0.685
  258SOL    HW1  188   1.881   0.014   0.747
  258SOL    HW2  189   1.770  -0.003   0.646
  258SOL     MW  190   1.827   0.047   0.687
  259SOL     OW  191   0.159   1.761   0.213
  259SOL    HW1  192   0.188   1.851   0.205
  259SOL    HW2  193   0.109   1.744   0.134
  259SOL     MW  194   0.157   1.769   0.202
  260SOL     OW  195   0.946   0.016   1.098
  260SOL    HW1  196   0.905   0.094   1.060
  260SOL    HW2  197   1.040   0.034   1.093
  260SOL     MW  198   0.952   0.028   1.093
  261SOL     OW  199   0.961   0.694   0.128
  261SOL    HW1  200   0.963   0.641   0.049
  261SOL    HW2  201   1.049   0.731   0.134
  261SOL     MW  202   0.973   0.693   0.117
  262SOL     OW  203   1.575   0.620   0.464
  262SOL    HW1  204   1.614   0.620   0.551
  262SOL    HW2  205   1.516   0.696   0.464
  262SOL     MW  206   1.572   0.631   0.475
  263SOL     OW  207   0.892   0.987   1.593
  263SOL    HW1  208   0.869   0.967   1.683
  263SOL    HW2  209   0.977   1.031   1.598
  263SOL     MW  210   0.899   0.990   1.605
  264SOL     OW  211   0.972   0.124   1.353
  264SOL    HW1  212   0.978   0.086   1.266
  264SOL    HW2  213   0.961   0.218   1.338
  264SOL     MW  214   0.973   0.132   1.341
  265SOL     OW  215   1.061   0.613   1.187
  265SOL    HW1  216   1.136   0.642   1.134
  265SOL    HW2  217   0.993   0.678   1.171
  265SOL     MW  218   1.062   0.625   1.177
  266SOL     OW  219   1.611   0.581   1.464
  266SOL    HW1  220   1.592   0.490   1.443
  266SOL    HW2  221   1.589   0.630   1.385
  266SOL     MW  222   1.606   0.574   1.451
  267SOL     OW  223   1.753   1.675   1.368
  267SOL    HW1  224   1.681   1.637   1.419
  267SOL    HW2  225   1.770   1.760   1.409
  267SOL     MW  226   1.747   1.680   1.380
  268SOL     OW  227   1.058   0.319   1.570
  268SOL    HW1  228   1.024   0.358   1.489
  268SOL    HW2  229   1.036   0.227   1.563
  268SOL     MW  230   1.051   0.312   1.560
  269SOL     OW  231   1.762   0.506   0.630
  269SOL    HW1  232   1.851   0.475   0.647
  269SOL    HW2  233   1.705   0.446   0.678
  269SOL     MW  234   1.765   0.494   0.639
  270SOL     OW  235   0.188   0.220   0.659
  270SOL    HW1  236   0.179   0.160   0.585
  270SOL    HW2  237   0.121   0.191   0.722
  270SOL     MW  238   0.178   0.207   0.657
  271SOL     OW  239   1.131   1.313   0.220
  271SOL    HW1  240   1.081   1.315   0.302
  271SOL    HW2  241   1.065   1.331   0.152
  271SOL     MW  242   1.117   1.315   0.222
  272SOL     OW  243   0.135   0.393   1.022
  272SOL    HW1  244   0.107   0.484   1.031
  272SOL    HW2  245   0.072   0.354   0.961
  272SOL     MW  246   0.122   0.399   1.016
  273SOL     OW  247   0.594   1.731   0.328
  273SOL    HW1  248   0.515   1.689   0.361
  273SOL    HW2  249   0.660   1.714   0.395
  273SOL     MW  250   0.593   1.723   0.341
  274SOL     OW  251   0.730   1.146   0.035
  274SOL    HW1  252   0.652   1.092   0.022
  274SOL    HW2  253   0.701   1.219   0.088
  274SOL     MW  254   0.716   1.148   0.040
  275SOL     OW  255   1.856   0.886   1.227
  275SOL    HW1  256   1.872   0.924   1.140
  275SOL    HW2  257   1.890   0.952   1.288
  275SOL     MW  258   1.863   0.899   1.223
  276SOL     OW  259   1.648   1.595   0.896
  276SOL    HW1  260   1.677   1.662   0.957
  276SOL    HW2  261   1.629   1.519   0.951
  276SOL     MW  262   1.650   1.595   0.911
  277SOL     OW  263   1.311   1.662   0.103
  277SOL    HW1  264   1.237   1.625   0.153
  277SOL    HW2  265   1.319   1.752   0.136
  277SOL     MW  266   1.302   1.669   0.115
  278SOL     OW  267   0.119   0.668   1.192
  278SOL    HW1  268   0.181   0.698   1.258
  278SOL    HW2  269   0.053   0.737   1.186
  278SOL     MW  270   0.118   0.681   1.199
  279SOL     OW  271   1.535   1.336   0.045
  279SOL    HW1  272   1.482   1.385  -0.019
  279SOL    HW2  273   1.566   1.402   0.106
  279SOL     MW  274   1.533   1.350   0.043
  280SOL     OW  275   0.760   0.225   0.100
  280SOL    HW1  276   0.708   0.145   0.088
  280SOL    HW2  277   0.847   0.202   0.068
  280SOL     MW  278   0.763   0.211   0.094
  281SOL     OW  279   0.214   1.777   1.644
  281SOL    HW1  280   0.188   1.845   1.582
  281SOL    HW2  281   0.262   1.714   1.592
  281SOL     MW  282   0.216   1.777   1.630
  282SOL     OW  283   0.266   1.096   1.151
  282SOL    HW1  284   0.319   1.171   1.176
  282SOL    HW2  285   0.185   1.134   1.117
  282SOL     MW  286   0.262   1.111   1.151
  283SOL     OW  287   0.806   1.000   1.139
  283SOL    HW1  288   0.834   0.909   1.151
  283SOL    HW2  289   0.735   0.994   1.075
  283SOL     MW  290   0.799   0.988   1.134
  284SOL     OW  291   0.121   0.865   0.557
  284SOL    HW1  292   0.212   0.880   0.584
  284SOL    HW2  293   0.124   0.786   0.503
  284SOL     MW  294   0.133   0.857   0.555
  285SOL     OW  295   0.357   0.573   1.811
  285SOL    HW1  296   0.304   0.653   1.818
  285SOL    HW2  297   0.427   0.585   1.876
  285SOL     MW  298   0.359   0.586   1.819
  286SOL     OW  299   0.743   0.123   1.518
  286SOL    HW1  300   0.720   0.031   1.520
  286SOL    HW2  301   0.829   0.125   1.475
  286SOL     MW  302   0.750   0.113   1.514
  287SOL     OW  303   0.427   0.647   1.557
  287SOL    HW1  304   0.507   0.697   1.543
  287SOL    HW2  305   0.418   0.641   1.652
  287SOL     MW  306   0.436   0.653   1.567
  288SOL     OW  307   0.748   1.797   0.931
  288SOL    HW1  308   0.837   1.812   0.961
  288SOL    HW2  309   0.743   1.844   0.847
  288SOL     MW  310   0.758   1.805   0.924
  289SOL     OW  311   1.404   0.172   1.828
  289SOL    HW1  312   1.460   0.099   1.854
  289SOL    HW2  313   1.374   0.210   1.910
  289SOL     MW  314   1.408   0.167   1.841
  290SOL     OW  315   0.129   1.477   0.596
  290SOL    HW1  316   0.101   1.516   0.678
  290SOL    HW2  317   0.149   1.386   0.618
  290SOL     MW  318   0.127   1.469   0.609
  291SOL     OW  319   0.962   1.520   0.631
  291SOL    HW1  320   1.045   1.474   0.615
  291SOL    HW2  321   0.952   1.519   0.727
  291SOL     MW  322   0.972   1.513   0.641
  292SOL     OW  323   1.794   0.665   0.945
  292SOL    HW1  324   1.883   0.695   0.927
  292SOL    HW2  325   1.774   0.605   0.874
  292SOL     MW  326   1.803   0.662   0.934
  293SOL     OW  327   0.695   1.577   0.036
  293SOL    HW1  328   0.635   1.646   0.006
  293SOL    HW2  329   0.640   1.519   0.089
  293SOL     MW  330   0.679   1.579   0.038
  294SOL     OW  331   1.133   0.222   0.259
  294SOL    HW1  332   1.066   0.198   0.196
  294SOL    HW2  333   1.198   0.271   0.208
  294SOL     MW  334   1.133   0.224   0.244
  295SOL     OW  335   0.940   0.406   1.344
  295SOL    HW1  336   0.859   0.447   1.372
  295SOL    HW2  337   0.987   0.474   1.296
  295SOL     MW  338   0.935   0.421   1.342
  296SOL     OW  339   1.200   0.744   0.967
  296SOL    HW1  340   1.213   0.838   0.977
  296SOL    HW2  341   1.161   0.734   0.881
  296SOL     MW  342   1.196   0.755   0.957
  297SOL     OW  343   0.652   0.939   0.771
  297SOL    HW1  344   0.563   0.930   0.804
  297SOL    HW2  345   0.656   1.029   0.739
  297SOL     MW  346   0.641   0.950   0.771
  298SOL     OW  347   1.451   0.522   0.766
  298SOL    HW1  348   1.396   0.443   0.765
  298SOL    HW2  349   1.433   0.563   0.850
  298SOL     MW  350   1.441   0.517   0.775
  299SOL     OW  351   0.422   0.209   1.583
  299SOL    HW1  352   0.343   0.227   1.635
  299SOL    HW2  353   0.417   0.271   1.510
  299SOL     MW  354   0.412   0.219   1.580
  300SOL     OW  355   1.070   0.726   0.723
  300SOL    HW1  356   1.007   0.658   0.747
  300SOL    HW2  357   1.090   0.707   0.631
  300SOL     MW  358   1.064   0.713   0.715
  301SOL     OW  359   0.326   1.621   0.425
  301SOL    HW1  360   0.287   1.668   0.351
  301SOL    HW2  361   0.260   1.556   0.450
  301SOL     MW  362   0.313   1.619   0.419
  302SOL     OW  363   0.818   1.030   0.449
  302SOL    HW1  364   0.820   1.004   0.356
  302SOL    HW2  365   0.876   0.967   0.492
  302SOL     MW  366   0.826   1.019   0.443
  303SOL     OW  367   1.371   1.590   1.221
  303SOL    HW1  368   1.296   1.636   1.259
  303SOL    HW2  369   1.353   1.497   1.238
  303SOL     MW  370   1.360   1.584   1.229
  304SOL     OW  371   1.375   1.798   0.651
  304SOL    HW1  372   1.318   1.751   0.590
  304SOL    HW2  373   1.461   1.759   0.638
  304SOL     MW  374   1.378   1.789   0.641
  305SOL     OW  375   1.328   0.274   0.782
  305SOL    HW1  376   1.356   0.206   0.843
  305SOL    HW2  377   1.242   0.245   0.752
  305SOL     MW  378   1.321   0.261   0.786
  306SOL     OW  379   0.133   1.208   0.716
  306SOL    HW1  380   0.197   1.240   0.779
  306SOL    HW2  381   0.182   1.144   0.664
  306SOL     MW  382   0.148   1.204   0.717
  307SOL     OW  383   0.633   1.284   1.698
  307SOL    HW1  384   0.681   1.367   1.685
  307SOL    HW2  385   0.690   1.232   1.754
  307SOL     MW  386   0.647   1.288   1.704
  308SOL     OW  387   0.209   1.526   1.838
  308SOL    HW1  388   0.265   1.450   1.853
  308SOL    HW2  389   0.158   1.504   1.760
  308SOL     MW  390   0.209   1.513   1.829
  309SOL     OW  391   1.308   0.378   0.117
  309SOL    HW1  392   1.281   0.444   0.053
  309SOL    HW2  393   1.378   0.421   0.167
  309SOL     MW  394   1.313   0.391   0.114
  310SOL     OW  395   0.976   0.083   0.054
  310SOL    HW1  396   1.032   0.075  -0.024
  310SOL    HW2  397   0.953  -0.007   0.076
  310SOL     MW  398   0.981   0.070   0.047
  311SOL     OW  399   1.481   0.934   0.259
  311SOL    HW1  400   1.448   1.023   0.249
  311SOL    HW2  401   1.446   0.905   0.344
  311SOL     MW  402   1.471   0.943   0.270
  312SOL     OW  403   0.387   0.031   1.789
  312SOL    HW1  404   0.315  -0.004   1.737
  312SOL    HW2  405   0.445   0.072   1.724
  312SOL     MW  406   0.385   0.032   1.774
  313SOL     OW  407   0.411   1.521   1.088
  313SOL    HW1  408   0.456   1.583   1.145
  313SOL    HW2  409   0.318   1.540   1.101
  313SOL     MW  410   0.404   1.531   1.095
  314SOL     OW  411   1.851   1.050   1.442
  314SOL    HW1  412   1.766   1.063   1.401
  314SOL    HW2  413   1.831   1.014   1.529
  314SOL     MW  414   1.838   1.046   1.447
  315SOL     OW  415   0.475   0.972   0.051
  315SOL    HW1  416   0.398   0.985   0.107
  315SOL    HW2  417   0.439   0.936  -0.030
  315SOL     MW  418   0.461   0.968   0.048
  316SOL     OW  419   1.128   0.945   0.294
  316SOL    HW1  420   1.038   0.966   0.269
  316SOL    HW2  421   1.155   1.018   0.350
  316SOL     MW  422   1.120   0.957   0.297
  317SOL     OW  423   0.628   1.294   0.986
  317SOL    HW1  424   0.621   1.273   1.080
  317SOL    HW2  425   0.546   1.262   0.949
  317SOL     MW  426   0.616   1.288   0.993
  318SOL     OW  427   1.492   0.304   1.388
  318SOL    HW1  428   1.439   0.306   1.468
  318SOL    HW2  429   1.477   0.217   1.351
  318SOL     MW  430   1.484   0.294   1.393
  319SOL     OW  431   1.828   0.228   1.261
  319SOL    HW1  432   1.809   0.295   1.196
  319SOL    HW2  433   1.885   0.166   1.216
  319SOL     MW  434   1.832   0.229   1.247
  320SOL     OW  435   0.074   1.386   1.649
  320SOL    HW1  436   0.118   1.319   1.595
  320SOL    HW2  437  -0.011   1.348   1.669
  320SOL     MW  438   0.069   1.372   1.645
  321SOL     OW  439   0.757   0.061   0.701
  321SOL    HW1  440   0.686   0.122   0.683
  321SOL    HW2  441   0.808   0.058   0.620
  321SOL     MW  442   0.753   0.067   0.688
  322SOL     OW  443   1.632   1.754   1.124
  322SOL    HW1  444   1.675   1.724   1.204
  322SOL    HW2  445   1.551   1.702   1.121
  322SOL     MW  446   1.627   1.743   1.134
  323SOL     OW  447   0.717   0.718   1.831
  323SOL    HW1  448   0.787   0.660   1.803
  323SOL    HW2  449   0.660   0.663   1.886
  323SOL     MW  450   0.719   0.705   1.835
  324SOL     OW  451   1.144   0.065   1.710
  324SOL    HW1  452   1.139  -0.028   1.691
  324SOL    HW2  453   1.227   0.076   1.756
  324SOL     MW  454   1.152   0.054   1.714
  325SOL     OW  455   0.518   0.585   0.164
  325SOL    HW1  456   0.484   0.641   0.234
  325SOL    HW2  457   0.589   0.535   0.204
  325SOL     MW  458   0.524   0.586   0.178
  326SOL     OW  459   1.614   1.336   0.986
  326SOL    HW1  460   1.649   1.318   0.899
  326SOL    HW2  461   1.519   1.337   0.973
  326SOL     MW  462   1.606   1.333   0.973
  327SOL     OW  463   1.574   0.471   0.228
  327SOL    HW1  464   1.566   0.542   0.165
  327SOL    HW2  465   1.592   0.515   0.311
  327SOL     MW  466   1.575   0.485   0.230
  328SOL     OW  467   0.434   0.126   0.657
  328SOL    HW1  468   0.484   0.169   0.588
  328SOL    HW2  469   0.349   0.170   0.657
  328SOL     MW  470   0.431   0.139   0.648
  329SOL     OW  471   0.193   1.188   1.517
  329SOL    HW1  472   0.221   1.141   1.595
  329SOL    HW2  473   0.114   1.143   1.488
  329SOL     MW  474   0.186   1.177   1.523
  330SOL     OW  475   0.701   0.515   1.484
  330SOL    HW1  476   0.673   0.603   1.508
  330SOL    HW2  477   0.670   0.459   1.555
  330SOL     MW  478   0.693   0.518   1.496
  331SOL     OW  479   1.243   0.733   0.203
  331SOL    HW1  480   1.290   0.751   0.122
  331SOL    HW2  481   1.209   0.817   0.231
  331SOL     MW  482   1.245   0.747   0.196
  332SOL     OW  483   0.356   0.911   0.697
  332SOL    HW1  484   0.414   0.967   0.645
  332SOL    HW2  485   0.400   0.826   0.699
  332SOL     MW  486   0.369   0.908   0.690
  333SOL     OW  487   1.496   0.263   0.534
  333SOL    HW1  488   1.418   0.213   0.559
  333SOL    HW2  489   1.467   0.354   0.534
  333SOL     MW  490   1.482   0.267   0.537
  334SOL     OW  491   1.082   0.225   0.693
  334SOL    HW1  492   1.102   0.300   0.637
  334SOL    HW2  493   1.062   0.264   0.778
  334SOL     MW  494   1.083   0.241   0.697
  335SOL     OW  495   0.978   1.475   0.025
  335SOL    HW1  496   1.005   1.553  -0.023
  335SOL    HW2  497   0.885   1.490   0.044
  335SOL     MW  498   0.969   1.488   0.021
  336SOL     OW  499   0.063   1.511   0.869
  336SOL    HW1  500   0.095   1.515   0.960
  336SOL    HW2  501  -0.032   1.519   0.877
  336SOL     MW  502   0.055   1.514   0.882
  337SOL     OW  503   0.018   0.637   0.416
  337SOL    HW1  504  -0.042   0.609   0.486
  337SOL    HW2  505   0.092   0.577   0.422
  337SOL     MW  506   0.020   0.626   0.425
  338SOL     OW  507   1.586   1.849   1.850
  338SOL    HW1  508   1.631   1.773   1.815
  338SOL    HW2  509   1.624   1.862   1.937
  338SOL     MW  510   1.596   1.842   1.856
  339SOL     OW  511   0.444   0.376   1.305
  339SOL    HW1  512   0.477   0.457   1.345
  339SOL    HW2  513   0.417   0.402   1.217
  339SOL     MW  514   0.443   0.390   1.299
  340SOL     OW  515   0.398   0.343   1.041
  340SOL    HW1  516   0.428   0.257   1.012
  340SOL    HW2  517   0.303   0.336   1.044
  340SOL     MW  518   0.390   0.332   1.039
  341SOL     OW  519   1.227   0.552   1.732
  341SOL    HW1  520   1.279   0.487   1.685
  341SOL    HW2  521   1.185   0.603   1.662
  341SOL     MW  522   1.228   0.549   1.715
  342SOL     OW  523   1.326   0.347   1.593
  342SOL    HW1  524   1.233   0.331   1.580
  342SOL    HW2  525   1.352   0.285   1.661
  342SOL     MW  526   1.316   0.337   1.600
  343SOL     OW  527   0.541   0.121   0.932
  343SOL    HW1  528   0.551   0.030   0.958
  343SOL    HW2  529   0.497   0.117   0.847
  343SOL     MW  530   0.537   0.109   0.924
  344SOL     OW  531   0.635   1.736   1.478
  344SOL    HW1  532   0.552   1.721   1.523
  344SOL    HW2  533   0.694   1.669   1.513
  344SOL     MW  534   0.633   1.726   1.488
  345SOL     OW  535   1.692   0.443   1.103
  345SOL    HW1  536   1.625   0.476   1.163
  345SOL    HW2  537   1.735   0.521   1.069
  345SOL     MW  538   1.690   0.458   1.107
  346SOL     OW  539   1.870   1.163   1.073
  346SOL    HW1  540   1.863   1.103   0.998
  346SOL    HW2  541   1.796   1.223   1.062
  346SOL     MW  542   1.860   1.163   1.062
  347SOL     OW  543   1.252   1.025   0.991
  347SOL    HW1  544   1.266   0.997   1.082
  347SOL    HW2  545   1.338   1.056   0.963
  347SOL     MW  546   1.265   1.026   1.000
  348SOL     OW  547   1.335   0.520   1.270
  348SOL    HW1  548   1.356   0.521   1.177
  348SOL    HW2  549   1.380   0.442   1.303
  348SOL     MW  550   1.342   0.510   1.262
  349SOL     OW  551   1.828   0.651   1.812
  349SOL    HW1  552   1.865   0.596   1.881
  349SOL    HW2  553   1.853   0.608   1.730
  349SOL     MW  554   1.835   0.639   1.811
  350SOL     OW  555   1.326   0.035   0.212
  350SOL    HW1  556   1.400   0.079   0.255
  350SOL    HW2  557   1.250   0.089   0.234
  350SOL     MW  558   1.326   0.047   0.220
  351SOL     OW  559   1.386   0.810   0.490
  351SOL    HW1  560   1.301   0.780   0.460
  351SOL    HW2  561   1.378   0.817   0.585
  351SOL     MW  562   1.374   0.808   0.499
  352SOL     OW  563   0.462   1.273   1.221
  352SOL    HW1  564   0.474   1.300   1.312
  352SOL    HW2  565   0.443   1.354   1.174
  352SOL     MW  566   0.461   1.288   1.226
  353SOL     OW  567   0.746   0.253   1.044
  353SOL    HW1  568   0.719   0.255   1.135
  353SOL    HW2  569   0.676   0.205   0.999
  353SOL     MW  570   0.734   0.249   1.051
  354SOL     OW  571   0.600   1.745   1.206
  354SOL    HW1  572   0.652   1.822   1.183
  354SOL    HW2  573   0.609   1.737   1.301
  354SOL     MW  574   0.609   1.752   1.217
  355SOL     OW  575   0.576   1.061   1.555
  355SOL    HW1  576   0.613   1.066   1.467
  355SOL    HW2  577   0.615   1.134   1.602
  355SOL     MW  578   0.586   1.071   1.550
  356SOL     OW  579   0.756   1.104   1.367
  356SOL    HW1  580   0.815   1.050   1.420
  356SOL    HW2  581   0.771   1.076   1.277
  356SOL     MW  582   0.766   1.093   1.363
  357SOL     OW  583   0.759   0.476   0.216
  357SOL    HW1  584   0.832   0.525   0.179
  357SOL    HW2  585   0.775   0.385   0.190
  357SOL     MW  586   0.771   0.471   0.209
  358SOL     OW  587   1.567   1.593   1.539
  358SOL    HW1  588   1.609   1.578   1.624
  358SOL    HW2  589   1.558   1.506   1.501
  358SOL     MW  590   1.571   1.581   1.546
  359SOL     OW  591   1.227   0.072   1.130
  359SOL    HW1  592   1.282   0.081   1.052
  359SOL    HW2  593   1.282   0.106   1.201
  359SOL     MW  594   1.241   0.077   1.129
  360SOL     OW  595   0.234   0.985   0.314
  360SOL    HW1  596   0.171   1.001   0.243
  360SOL    HW2  597   0.181   0.948   0.385
  360SOL     MW  598   0.219   0.982   0.314
  361SOL     OW  599   0.590   1.339   0.173
  361SOL    HW1  600   0.605   1.315   0.265
  361SOL    HW2  601   0.498   1.317   0.157
  361SOL     MW  602   0.580   1.332   0.183
  362SOL     OW  603   1.129   1.570   0.325
  362SOL    HW1  604   1.137   1.488   0.276
  362SOL    HW2  605   1.048   1.609   0.292
  362SOL     MW  606   1.119   1.565   0.315
  363SOL     OW  607   0.388   1.728   0.894
  363SOL    HW1  608   0.392   1.639   0.929
  363SOL    HW2  609   0.414   1.719   0.803
  363SOL     MW  610   0.391   1.716   0.886
  364SOL     OW  611   0.094   1.481   1.388
  364SOL    HW1  612   0.084   1.439   1.474
  364SOL    HW2  613   0.015   1.534   1.378
  364SOL     MW  614   0.083   1.482   1.399
  365SOL     OW  615   0.998   0.345   0.958
  365SOL    HW1  616   0.928   0.297   1.003
  365SOL    HW2  617   1.030   0.408   1.022
  365SOL     MW  618   0.993   0.347   0.972
  366SOL     OW  619   0.649   0.781   1.578
  366SOL    HW1  620   0.642   0.876   1.566
  366SOL    HW2  621   0.658   0.770   1.673
  366SOL     MW  622   0.650   0.793   1.588
  367SOL     OW  623   0.370   1.296   1.836
  367SOL    HW1  624   0.442   1.298   1.773
  367SOL    HW2  625   0.340   1.205   1.835
  367SOL     MW  626   0.375   1.285   1.828
  368SOL     OW  627   1.454   0.059   1.303
  368SOL    HW1  628   1.525   0.005   1.267
  368SOL    HW2  629   1.453   0.038   1.396
  368SOL     MW  630   1.463   0.050   1.311
  369SOL     OW  631   1.654   1.589   1.787
  369SOL    HW1  632   1.627   1.586   1.878
  369SOL    HW2  633   1.750   1.593   1.790
  369SOL     MW  634   1.664   1.589   1.799
  370SOL     OW  635   0.465   0.451   0.771
  370SOL    HW1  636   0.536   0.399   0.734
  370SOL    HW2  637   0.451   0.416   0.858
  370SOL     MW  638   0.473   0.440   0.778
  371SOL     OW  639   0.020   1.786   1.843
  371SOL    HW1  640   0.070   1.764   1.765
  371SOL    HW2  641   0.028   1.881   1.851
  371SOL     MW  642   0.028   1.795   1.834
  372SOL     OW  643   0.781   1.544   0.847
  372SOL    HW1  644   0.709   1.481   0.860
  372SOL    HW2  645   0.742   1.629   0.865
  372SOL     MW  646   0.765   1.547   0.850
  373SOL     OW  647   1.101   0.392   0.495
  373SOL    HW1  648   1.123   0.329   0.427
  373SOL    HW2  649   1.006   0.384   0.506
  373SOL     MW  650   1.091   0.383   0.487
  374SOL     OW  651   0.186   0.082   0.427
  374SOL    HW1  652   0.257   0.103   0.366
  374SOL    HW2  653   0.140   0.010   0.385
  374SOL     MW  654   0.190   0.076   0.413
  375SOL     OW  655   0.017   0.549   1.570
  375SOL    HW1  656   0.081   0.615   1.545
  375SOL    HW2  657  -0.064   0.576   1.527
  375SOL     MW  658   0.015   0.561   1.562
  376SOL     OW  659   1.755   1.456   0.527
  376SOL    HW1  660   1.725   1.389   0.588
  376SOL    HW2  661   1.849   1.462   0.541
  376SOL     MW  662   1.763   1.448   0.537
  377SOL     OW  663   1.311   1.133   0.457
  377SOL    HW1  664   1.283   1.219   0.490
  377SOL    HW2  665   1.339   1.149   0.367
  377SOL     MW  666   1.311   1.147   0.449
  378SOL     OW  667   0.973   0.053   0.510
  378SOL    HW1  668   1.010   0.112   0.575
  378SOL    HW2  669   0.950   0.109   0.436
  378SOL     MW  670   0.974   0.068   0.509
  379SOL     OW  671   1.826   0.935   0.932
  379SOL    HW1  672   1.817   0.967   0.843
  379SOL    HW2  673   1.779   0.851   0.932
  379SOL     MW  674   1.819   0.928   0.922
  380SOL     OW  675   0.202   0.775   1.511
  380SOL    HW1  676   0.223   0.844   1.449
  380SOL    HW2  677   0.282   0.722   1.516
  380SOL     MW  678   0.215   0.776   1.505
  381SOL     OW  679   1.738   0.866   0.633
  381SOL    HW1  680   1.832   0.855   0.621
  381SOL    HW2  681   1.714   0.938   0.574
  381SOL     MW  682   1.748   0.874   0.624
  382SOL     OW  683   0.187   0.790   1.778
  382SOL    HW1  684   0.113   0.734   1.804
  382SOL    HW2  685   0.182   0.793   1.683
  382SOL     MW  686   0.176   0.783   1.768
  383SOL     OW  687   0.353   0.077   1.228
  383SOL    HW1  688   0.396   0.161   1.248
  383SOL    HW2  689   0.426   0.015   1.221
  383SOL     MW  690   0.368   0.080   1.229
  384SOL     OW  691   0.394   0.744   0.406
  384SOL    HW1  692   0.394   0.839   0.391
  384SOL    HW2  693   0.471   0.728   0.460
  384SOL     MW  694   0.404   0.755   0.411
  385SOL     OW  695   1.170   0.603   1.470
  385SOL    HW1  696   1.206   0.576   1.386
  385SOL    HW2  697   1.083   0.637   1.449
  385SOL     MW  698   1.164   0.604   1.457
  386SOL     OW  699   0.153   0.475   0.695
  386SOL    HW1  700   0.215   0.482   0.768
  386SOL    HW2  701   0.153   0.382   0.672
  386SOL     MW  702   0.161   0.464   0.702
  387SOL     OW  703   1.700   1.815   0.227
  387SOL    HW1  704   1.767   1.848   0.167
  387SOL    HW2  705   1.657   1.894   0.261
  387SOL     MW  706   1.702   1.830   0.223
  388SOL     OW  707   0.835   0.736   1.179
  388SOL    HW1  708   0.793   0.654   1.155
  388SOL    HW2  709   0.836   0.735   1.275
  388SOL     MW  710   0.828   0.725   1.188
  389SOL     OW  711   1.506   1.869   1.578
  389SOL    HW1  712   1.509   1.775   1.561
  389SOL    HW2  713   1.529   1.877   1.670
  389SOL     MW  714   1.509   1.857   1.588
  390SOL     OW  715   0.639   0.206   1.284
  390SOL    HW1  716   0.570   0.269   1.305
  390SOL    HW2  717   0.666   0.170   1.369
  390SOL     MW  718   0.633   0.209   1.297
  391SOL     OW  719   0.022   1.047   0.153
  391SOL    HW1  720  -0.009   1.112   0.216
  391SOL    HW2  721  -0.029   0.969   0.172
  391SOL     MW  722   0.012   1.044   0.163
  392SOL     OW  723   1.434   0.059   0.901
  392SOL    HW1  724   1.522   0.068   0.938
  392SOL    HW2  725   1.444   0.000   0.827
  392SOL     MW  726   1.448   0.053   0.895
  393SOL     OW  727   1.466   0.798   0.745
  393SOL    HW1  728   1.546   0.813   0.694
  393SOL    HW2  729   1.459   0.703   0.751
  393SOL     MW  730   1.475   0.787   0.740
  394SOL     OW  731   0.606   1.847   0.095
  394SOL    HW1  732   0.511   1.847   0.087
  394SOL    HW2  733   0.622   1.793   0.173
  394SOL     MW  734   0.596   1.841   0.104
  395SOL     OW  735   0.916   0.724   1.442
  395SOL    HW1  736   0.985   0.791   1.439
  395SOL    HW2  737   0.849   0.762   1.498
  395SOL     MW  738   0.917   0.737   1.449
  396SOL     OW  739   0.334   1.024   1.690
  396SOL    HW1  740   0.288   0.940   1.692
  396SOL    HW2  741   0.391   1.018   1.614
  396SOL     MW  742   0.336   1.012   1.682
  397SOL     OW  743   1.451   0.667   0.011
  397SOL    HW1  744   1.379   0.643  -0.047
  397SOL    HW2  745   1.517   0.704  -0.047
  397SOL     MW  746   1.450   0.669  -0.004
  398SOL     OW  747   0.585   1.399   0.691
  398SOL    HW1  748   0.650   1.332   0.712
  398SOL    HW2  749   0.637   1.476   0.668
  398SOL     MW  750   0.600   1.401   0.690
  399SOL     OW  751   0.846   0.564   0.821
  399SOL    HW1  752   0.786   0.582   0.893
  399SOL    HW2  753   0.880   0.476   0.840
  399SOL     MW  754   0.842   0.554   0.834
  400SOL     OW  755   1.071   1.147   0.840
  400SOL    HW1  756   1.163   1.128   0.858
  400SOL    HW2  757   1.044   1.077   0.780
  400SOL     MW  758   1.079   1.135   0.834
  401SOL     OW  759   0.864   0.967   0.195
  401SOL    HW1  760   0.850   0.879   0.160
  401SOL    HW2  761   0.815   1.024   0.136
  401SOL     MW  762   0.856   0.962   0.183
  402SOL     OW  763   0.277   0.691   0.974
  402SOL    HW1  764   0.227   0.690   1.055
  402SOL    HW2  765   0.297   0.783   0.958
  402SOL     MW  766   0.273   0.703   0.982
  403SOL     OW  767   1.344   1.455   1.736
  403SOL    HW1  768   1.344   1.549   1.752
  403SOL    HW2  769   1.389   1.445   1.652
  403SOL     MW  770   1.350   1.465   1.727
  404SOL     OW  771   1.583   0.173   0.297
  404SOL    HW1  772   1.576   0.177   0.392
  404SOL    HW2  773   1.595   0.264   0.270
  404SOL     MW  774   1.584   0.186   0.305
  405SOL     OW  775   0.872   0.736   0.411
  405SOL    HW1  776   0.852   0.722   0.318
  405SOL    HW2  777   0.965   0.715   0.418
  405SOL     MW  778   0.882   0.731   0.400
  406SOL     OW  779   0.199   0.359   1.715
  406SOL    HW1  780   0.156   0.418   1.652
  406SOL    HW2  781   0.267   0.414   1.755
  406SOL     MW  782   0.203   0.374   1.712
  407SOL     OW  783   0.855   1.694   0.449
  407SOL    HW1  784   0.913   1.765   0.476
  407SOL    HW2  785   0.878   1.622   0.507
  407SOL     MW  786   0.866   1.694   0.460
  408SOL     OW  787   1.650   0.156   1.039
  408SOL    HW1  788   1.695   0.074   1.058
  408SOL    HW2  789   1.670   0.212   1.115
  408SOL     MW  790   1.660   0.152   1.051
  409SOL     OW  791   0.098  -0.001   1.138
  409SOL    HW1  792   0.089   0.000   1.043
  409SOL    HW2  793   0.192   0.011   1.153
  409SOL     MW  794   0.110   0.002   1.129
  410SOL     OW  795   1.735   1.192   0.758
  410SOL    HW1  796   1.714   1.138   0.681
  410SOL    HW2  797   1.831   1.190   0.762
  410SOL     MW  798   1.744   1.185   0.747
  411SOL     OW  799   0.427   1.337   1.501
  411SOL    HW1  800   0.348   1.287   1.524
  411SOL    HW2  801   0.497   1.296   1.551
  411SOL     MW  802   0.425   1.325   1.511
  412SOL     OW  803   0.311   0.126   0.184
  412SOL    HW1  804   0.240   0.181   0.152
  412SOL    HW2  805   0.353   0.092   0.105
  412SOL     MW  806   0.307   0.128   0.170
  413SOL     OW  807   1.435   0.623   1.020
  413SOL    HW1  808   1.358   0.669   0.986
  413SOL    HW2  809   1.492   0.692   1.054
  413SOL     MW  810   1.432   0.638   1.020
  414SOL     OW  811   0.067   0.225   0.033
  414SOL    HW1  812   0.034   0.304   0.077
  414SOL    HW2  813   0.122   0.258  -0.038
  414SOL     MW  814   0.070   0.239   0.030
  415SOL     OW  815   0.101   1.482   0.222
  415SOL    HW1  816   0.118   1.566   0.264
  415SOL    HW2  817   0.136   1.491   0.134
  415SOL     MW  818   0.106   1.495   0.216
  416SOL     OW  819   1.373   1.571   0.439
  416SOL    HW1  820   1.436   1.561   0.368
  416SOL    HW2  821   1.290   1.591   0.394
  416SOL     MW  822   1.370   1.572   0.424
  417SOL     OW  823   1.736   0.839   2.125
  417SOL    HW1  824   1.777   0.781   2.190
  417SOL    HW2  825   1.643   0.831   2.142
  417SOL     MW  826   1.730   0.831   2.135
  418SOL     OW  827   0.530   1.022   2.354
  418SOL    HW1  828   0.620   0.997   2.338
  418SOL    HW2  829   0.526   1.115   2.331
  418SOL     MW  830   0.542   1.031   2.349
  419SOL     OW  831   1.646   1.725   2.496
  419SOL    HW1  832   1.658   1.671   2.574
  419SOL    HW2  833   1.683   1.673   2.425
  419SOL     MW  834   1.652   1.710   2.497
  420SOL     OW  835   0.814   0.478   2.367
  420SOL    HW1  836   0.789   0.566   2.395
  420SOL    HW2  837   0.811   0.481   2.271
  420SOL     MW  838   0.810   0.490   2.359
  421SOL     OW  839   0.256   0.506   2.295
  421SOL    HW1  840   0.288   0.594   2.277
  421SOL    HW2  841   0.244   0.504   2.390
  421SOL     MW  842   0.259   0.518   2.307
  422SOL     OW  843   0.655   0.261   2.382
  422SOL    HW1  844   0.713   0.337   2.384
  422SOL    HW2  845   0.590   0.282   2.315
  422SOL     MW  846   0.654   0.273   2.373
  423SOL     OW  847   1.369   1.170   2.073
  423SOL    HW1  848   1.287   1.206   2.039
  423SOL    HW2  849   1.437   1.213   2.022
  423SOL     MW  850   1.367   1.180   2.061
  424SOL     OW  851   0.921   1.311   2.266
  424SOL    HW1  852   0.898   1.373   2.334
  424SOL    HW2  853   0.878   1.229   2.292
  424SOL     MW  854   0.913   1.307   2.277
  425SOL     OW  855   1.794   0.312   2.722
  425SOL    HW1  856   1.731   0.292   2.791
  425SOL    HW2  857   1.784   0.241   2.659
  425SOL     MW  858   1.784   0.299   2.723
  426SOL     OW  859   0.418   0.284   2.234
  426SOL    HW1  860   0.392   0.246   2.150
  426SOL    HW2  861   0.355   0.354   2.250
  426SOL     MW  862   0.407   0.287   2.225
  427SOL     OW  863   0.253   1.245   2.271
  427SOL    HW1  864   0.201   1.313   2.227
  427SOL    HW2  865   0.250   1.171   2.211
  427SOL     MW  866   0.245   1.244   2.258
  428SOL     OW  867   0.915   1.708   2.049
  428SOL    HW1  868   0.870   1.724   2.132
  428SOL    HW2  869   0.846   1.673   1.991
  428SOL     MW  870   0.901   1.705   2.051
  429SOL     OW  871   1.850   0.481   2.024
  429SOL    HW1  872   1.759   0.483   2.052
  429SOL    HW2  873   1.895   0.543   2.082
  429SOL     MW  874   1.843   0.489   2.034
  430SOL     OW  875   1.595   1.084   2.374
  430SOL    HW1  876   1.505   1.084   2.409
  430SOL    HW2  877   1.588   1.130   2.291
  430SOL     MW  878   1.582   1.090   2.368
  431SOL     OW  879   1.122   0.665   2.335
  431SOL    HW1  880   1.148   0.689   2.246
  431SOL    HW2  881   1.104   0.572   2.331
  431SOL     MW  882   1.124   0.657   2.322
  432SOL     OW  883   1.787   1.285   2.186
  432SOL    HW1  884   1.743   1.326   2.261
  432SOL    HW2  885   1.844   1.353   2.151
  432SOL     MW  886   1.789   1.299   2.191
  433SOL     OW  887   0.443   1.701   2.504
  433SOL    HW1  888   0.475   1.789   2.482
  433SOL    HW2  889   0.396   1.673   2.426
  433SOL     MW  890   0.442   1.709   2.491
  434SOL     OW  891   1.827   0.063   2.553
  434SOL    HW1  892   1.881   0.014   2.615
  434SOL    HW2  893   1.770  -0.003   2.514
  434SOL     MW  894   1.827   0.047   2.555
  435SOL     OW  895   0.159   1.761   2.081
  435SOL    HW1  896   0.188   1.851   2.073
  435SOL    HW2  897   0.109   1.744   2.002
  435SOL     MW  898   0.157   1.769   2.070
  436SOL     OW  899   1.563   1.569   2.052
  436SOL    HW1  900   1.611   1.638   2.098
  436SOL    HW2  901   1.484   1.613   2.021
  436SOL     MW  902   1.558   1.583   2.055
  437SOL     OW  903   0.961   0.694   1.996
  437SOL    HW1  904   0.963   0.641   1.917
  437SOL    HW2  905   1.049   0.731   2.002
  437SOL     MW  906   0.973   0.693   1.985
  438SOL     OW  907   1.575   0.620   2.332
  438SOL    HW1  908   1.614   0.620   2.419
  438SOL    HW2  909   1.516   0.696   2.332
  438SOL     MW  910   1.572   0.631   2.343
  439SOL     OW  911   1.762   0.506   2.498
  439SOL    HW1  912   1.851   0.475   2.515
  439SOL    HW2  913   1.705   0.446   2.546
  439SOL     MW  914   1.765   0.494   2.507
  440SOL     OW  915   1.131   1.313   2.088
  440SOL    HW1  916   1.081   1.315   2.170
  440SOL    HW2  917   1.065   1.331   2.020
  440SOL     MW  918   1.117   1.315   2.090
  441SOL     OW  919   0.594   1.731   2.196
  441SOL    HW1  920   0.515   1.689   2.229
  441SOL    HW2  921   0.660   1.714   2.263
  441SOL     MW  922   0.593   1.723   2.209
  442SOL     OW  923   0.730   1.146   1.903
  442SOL    HW1  924   0.652   1.092   1.890
  442SOL    HW2  925   0.701   1.219   1.956
  442SOL     MW  926   0.716   1.148   1.908
  443SOL     OW  927   1.311   1.662   1.971
  443SOL    HW1  928   1.237   1.625   2.021
  443SOL    HW2  929   1.319   1.752   2.004
  443SOL     MW  930   1.302   1.669   1.983
  444SOL     OW  931   1.535   1.336   1.913
  444SOL    HW1  932   1.482   1.385   1.849
  444SOL    HW2  933   1.566   1.402   1.974
  444SOL     MW  934   1.533   1.350   1.911
  445SOL     OW  935   0.760   0.225   1.968
  445SOL    HW1  936   0.708   0.145   1.956
  445SOL    HW2  937   0.847   0.202   1.936
  445SOL     MW  938   0.763   0.211   1.962
  446SOL     OW  939   0.121   0.865   2.425
  446SOL    HW1  940   0.212   0.880   2.452
  446SOL    HW2  941   0.124   0.786   2.371
  446SOL     MW  942   0.133   0.857   2.423
  447SOL     OW  943   0.695   1.577   1.904
  447SOL    HW1  944   0.635   1.646   1.874
  447SOL    HW2  945   0.640   1.519   1.957
  447SOL     MW  946   0.679   1.579   1.906
  448SOL     OW  947   1.133   0.222   2.127
  448SOL    HW1  948   1.066   0.198   2.064
  448SOL    HW2  949   1.198   0.271   2.076
  448SOL     MW  950   1.133   0.224   2.112
  449SOL     OW  951   0.326   1.621   2.293
  449SOL    HW1  952   0.287   1.668   2.219
  449SOL    HW2  953   0.260   1.556   2.318
  449SOL     MW  954   0.313   1.619   2.287
  450SOL     OW  955   0.818   1.030   2.317
  450SOL    HW1  956   0.820   1.004   2.224
  450SOL    HW2  957   0.876   0.967   2.360
  450SOL     MW  958   0.826   1.019   2.311
  451SOL     OW  959   1.375   1.798   2.519
  451SOL    HW1  960   1.318   1.751   2.458
  451SOL    HW2  961   1.461   1.759   2.506
  451SOL     MW  962   1.378   1.789   2.509
  452SOL     OW  963   0.133   1.208   2.584
  452SOL    HW1  964   0.197   1.240   2.647
  452SOL    HW2  965   0.182   1.144   2.532
  452SOL     MW  966   0.148   1.204   2.585
  453SOL     OW  967   1.308   0.378   1.985
  453SOL    HW1  968   1.281   0.444   1.921
  453SOL    HW2  969   1.378   0.421   2.035
  453SOL     MW  970   1.313   0.391   1.982
  454SOL     OW  971   0.976   0.083   1.922
  454SOL    HW1  972   1.032   0.075   1.844
  454SOL    HW2  973   0.953  -0.007   1.944
  454SOL     MW  974   0.981   0.070   1.915
  455SOL     OW  975   1.481   0.934   2.127
  455SOL    HW1  976   1.448   1.023   2.117
  455SOL    HW2  977   1.446   0.905   2.212
  455SOL     MW  978   1.471   0.943   2.138
  456SOL     OW  979   0.475   0.972   1.919
  456SOL    HW1  980   0.398   0.985   1.975
  456SOL    HW2  981   0.439   0.936   1.838
  456SOL     MW  982   0.461   0.968   1.916
  457SOL     OW  983   1.128   0.945   2.162
  457SOL    HW1  984   1.038   0.966   2.137
  457SOL    HW2  985   1.155   1.018   2.218
  457SOL     MW  986   1.120   0.957   2.165
  458SOL     OW  987   0.515   1.301   2.318
  458SOL    HW1  988   0.508   1.333   2.408
  458SOL    HW2  989   0.425   1.285   2.290
  458SOL     MW  990   0.503   1.303   2.325
  459SOL     OW  991   0.518   0.585   2.032
  459SOL    HW1  992   0.484   0.641   2.102
  459SOL    HW2  993   0.589   0.535   2.072
  459SOL     MW  994   0.524   0.586   2.046
  460SOL     OW  995   1.574   0.471   2.096
  460SOL    HW1  996   1.566   0.542   2.033
  460SOL    HW2  997   1.592   0.515   2.179
  460SOL     MW  998   1.575   0.485   2.098
  461SOL     OW  999   1.243   0.733   2.071
  461SOL    HW1 1000   1.290   0.751   1.990
  461SOL    HW2 1001   1.209   0.817   2.099
  461SOL     MW 1002   1.245   0.747   2.064
  462SOL     OW 1003   1.496   0.263   2.402
  462SOL    HW1 1004   1.418   0.213   2.427
  462SOL    HW2 1005   1.467   0.354   2.402
  462SOL     MW 1006   1.482   0.267   2.405
  463SOL     OW 1007   0.978   1.475   1.893
  463SOL    HW1 1008   1.005   1.553   1.845
  463SOL    HW2 1009   0.885   1.490   1.912
  463SOL     MW 1010   0.969   1.488   1.889
  464SOL     OW 1011   0.018   0.637   2.284
  464SOL    HW1 1012  -0.042   0.609   2.354
  464SOL    HW2 1013   0.092   0.577   2.290
  464SOL     MW 1014   0.020   0.626   2.293
  465SOL     OW 1015   1.186   1.368   2.444
  465SOL    HW1 1016   1.209   1.319   2.522
  465SOL    HW2 1017   1.267   1.410   2.416
  465SOL     MW 1018   1.199   1.368   2.451
  466SOL     OW 1019   0.541   0.121   2.800
  466SOL    HW1 1020   0.551   0.030   2.826
  466SOL    HW2 1021   0.497   0.117   2.715
  466SOL     MW 1022   0.537   0.109   2.792
  467SOL     OW 1023   1.326   0.035   2.080
  467SOL    HW1 1024   1.400   0.079   2.123
  467SOL    HW2 1025   1.250   0.089   2.102
  467SOL     MW 1026   1.326   0.047   2.088
  468SOL     OW 1027   1.386   0.810   2.358
  468SOL    HW1 1028   1.301   0.780   2.328
  468SOL    HW2 1029   1.378   0.817   2.453
  468SOL     MW 1030   1.374   0.808   2.367
  469SOL     OW 1031   0.759   0.476   2.084
  469SOL    HW1 1032   0.832   0.525   2.047
  469SOL    HW2 1033   0.775   0.385   2.058
  469SOL     MW 1034   0.771   0.471   2.077
  470SOL     OW 1035   0.234   0.985   2.182
  470SOL    HW1 1036   0.171   1.001   2.111
  470SOL    HW2 1037   0.181   0.948   2.253
  470SOL     MW 1038   0.219   0.982   2.182
  471SOL     OW 1039   0.590   1.339   2.041
  471SOL    HW1 1040   0.605   1.315   2.133
  471SOL    HW2 1041   0.498   1.317   2.025
  471SOL     MW 1042   0.580   1.332   2.051
  472SOL     OW 1043   1.129   1.570   2.193
  472SOL    HW1 1044   1.137   1.488   2.144
  472SOL    HW2 1045   1.048   1.609   2.160
  472SOL     MW 1046   1.119   1.565   2.183
  473SOL     OW 1047   0.781   1.544   2.715
  473SOL    HW1 1048   0.709   1.481   2.728
  473SOL    HW2 1049   0.742   1.629   2.733
  473SOL     MW 1050   0.765   1.547   2.718
  474SOL     OW 1051   1.101   0.392   2.363
  474SOL    HW1 1052   1.123   0.329   2.295
  474SOL    HW2 1053   1.006   0.384   2.374
  474SOL     MW 1054   1.091   0.383   2.355
  475SOL     OW 1055   0.186   0.082   2.295
  475SOL    HW1 1056   0.257   0.103   2.234
  475SOL    HW2 1057   0.140   0.010   2.253
  475SOL     MW 1058   0.190   0.076   2.281
  476SOL     OW 1059   1.755   1.456   2.395
  476SOL    HW1 1060   1.725   1.389   2.456
  476SOL    HW2 1061   1.849   1.462   2.409
  476SOL     MW 1062   1.763   1.448   2.405
  477SOL     OW 1063   1.311   1.133   2.325
  477SOL    HW1 1064   1.283   1.219   2.358
  477SOL    HW2 1065   1.339   1.149   2.235
  477SOL     MW 1066   1.311   1.147   2.317
  478SOL     OW 1067   1.738   0.866   2.501
  478SOL    HW1 1068   1.832   0.855   2.489
  478SOL    HW2 1069   1.714   0.938   2.442
  478SOL     MW 1070   1.748   0.874   2.492
  479SOL     OW 1071   0.394   0.744   2.274
  479SOL    HW1 1072   0.394   0.839   2.259
  479SOL    HW2 1073   0.471   0.728   2.328
  479SOL     MW 1074   0.404   0.755   2.279
  480SOL     OW 1075   0.153   0.475   2.563
  480SOL    HW1 1076   0.215   0.482   2.636
  480SOL    HW2 1077   0.153   0.382   2.540
  480SOL     MW 1078   0.161   0.464   2.570
  481SOL     OW 1079   1.700   1.815   2.095
  481SOL    HW1 1080   1.767   1.848   2.035
  481SOL    HW2 1081   1.657   1.894   2.129
  481SOL     MW 1082   1.702   1.830   2.091
  482SOL     OW 1083   0.022   1.047   2.021
  482SOL    HW1 1084  -0.009   1.112   2.084
  482SOL    HW2 1085  -0.029   0.969   2.040
  482SOL     MW 1086   0.012   1.044   2.031
  483SOL     OW 1087   0.606   1.847   1.963
  483SOL    HW1 1088   0.511   1.847   1.955
  483SOL    HW2 1089   0.622   1.793   2.041
  483SOL     MW 1090   0.596   1.841   1.972
  484SOL     OW 1091   1.451   0.667   1.879
  484SOL    HW1 1092   1.379   0.643   1.821
  484SOL    HW2 1093   1.517   0.704   1.821
  484SOL     MW 1094   1.450   0.669   1.864
  485SOL     OW 1095   1.071   1.147   2.708
  485SOL    HW1 1096   1.163   1.128   2.726
  485SOL    HW2 1097   1.044   1.077   2.648
  485SOL     MW 1098   1.079   1.135   2.702
  486SOL     OW 1099   0.864   0.967   2.063
  486SOL    HW1 1100   0.850   0.879   2.028
  486SOL    HW2 1101   0.815   1.024   2.004
  486SOL     MW 1102   0.856   0.962   2.051
  487SOL     OW 1103   1.345   1.385   2.804
  487SOL    HW1 1104   1.318   1.469   2.769
  487SOL    HW2 1105   1.305   1.380   2.891
  487SOL     MW 1106   1.338   1.394   2.810
  488SOL     OW 1107   1.583   0.173   2.165
  488SOL    HW1 1108   1.576   0.177   2.260
  488SOL    HW2 1109   1.595   0.264   2.138
  488SOL     MW 1110   1.584   0.186   2.173
  489SOL     OW 1111   0.872   0.736   2.279
  489SOL    HW1 1112   0.852   0.722   2.186
  489SOL    HW2 1113   0.965   0.715   2.286
  489SOL     MW 1114   0.882   0.731   2.268
  490SOL     OW 1115   0.855   1.694   2.317
  490SOL    HW1 1116   0.913   1.765   2.344
  490SOL    HW2 1117   0.878   1.622   2.375
  490SOL     MW 1118   0.866   1.694   2.328
  491SOL     OW 1119   1.735   1.192   2.626
  491SOL    HW1 1120   1.714   1.138   2.549
  491SOL    HW2 1121   1.831   1.190   2.630
  491SOL     MW 1122   1.744   1.185   2.615
  492SOL     OW 1123   0.311   0.126   2.052
  492SOL    HW1 1124   0.240   0.181   2.020
  492SOL    HW2 1125   0.353   0.092   1.973
  492SOL     MW 1126   0.307   0.128   2.038
  493SOL     OW 1127   0.067   0.225   1.901
  493SOL    HW1 1128   0.034   0.304   1.945
  493SOL    HW2 1129   0.122   0.258   1.830
  493SOL     MW 1130   0.070   0.239   1.898
  494SOL     OW 1131   0.101   1.482   2.090
  494SOL    HW1 1132   0.118   1.566   2.132
  494SOL    HW2 1133   0.136   1.491   2.002
  494SOL     MW 1134   0.106   1.495   2.084
  495SOL     OW 1135   1.373   1.571   2.307
  495SOL    HW1 1136   1.436   1.561   2.236
  495SOL    HW2 1137   1.290   1.591   2.262
  495SOL     MW 1138   1.370   1.572   2.292
  496SOL     OW 1139   0.814   2.346   0.499
  496SOL    HW1 1140   0.789   2.434   0.527
  496SOL    HW2 1141   0.811   2.349   0.403
  496SOL     MW 1142   0.810   2.358   0.491
  497SOL     OW 1143   0.256   2.374   0.427
  497SOL    HW1 1144   0.288   2.462   0.409
  497SOL    HW2 1145   0.244   2.372   0.522
  497SOL     MW 1146   0.259   2.386   0.439
  498SOL     OW 1147   0.655   2.129   0.514
  498SOL    HW1 1148   0.713   2.205   0.516
  498SOL    HW2 1149   0.590   2.150   0.447
  498SOL     MW 1150   0.654   2.141   0.505
  499SOL     OW 1151   0.661   2.386   1.057
  499SOL    HW1 1152   0.567   2.382   1.075
  499SOL    HW2 1153   0.691   2.295   1.066
  499SOL     MW 1154   0.652   2.374   1.060
  500SOL     OW 1155   1.794   2.180   0.854
  500SOL    HW1 1156   1.731   2.160   0.923
  500SOL    HW2 1157   1.784   2.109   0.791
  500SOL     MW 1158   1.784   2.167   0.855
  501SOL     OW 1159   0.418   2.152   0.366
  501SOL    HW1 1160   0.392   2.114   0.282
  501SOL    HW2 1161   0.355   2.222   0.382
  501SOL     MW 1162   0.407   2.155   0.357
  502SOL     OW 1163   1.850   2.349   0.156
  502SOL    HW1 1164   1.759   2.351   0.184
  502SOL    HW2 1165   1.895   2.411   0.214
  502SOL     MW 1166   1.843   2.357   0.166
  503SOL     OW 1167   1.395   2.587   1.578
  503SOL    HW1 1168   1.464   2.525   1.555
  503SOL    HW2 1169   1.320   2.561   1.525
  503SOL     MW 1170   1.395   2.574   1.569
  504SOL     OW 1171   0.927   2.398   1.771
  504SOL    HW1 1172   1.017   2.399   1.738
  504SOL    HW2 1173   0.886   2.323   1.729
  504SOL     MW 1174   0.933   2.388   1.762
  505SOL     OW 1175   0.707   2.202   1.721
  505SOL    HW1 1176   0.717   2.128   1.661
  505SOL    HW2 1177   0.743   2.171   1.804
  505SOL     MW 1178   0.713   2.188   1.723
  506SOL     OW 1179   1.827   1.931   0.685
  506SOL    HW1 1180   1.881   1.882   0.747
  506SOL    HW2 1181   1.770   1.865   0.646
  506SOL     MW 1182   1.827   1.915   0.687
  507SOL     OW 1183   0.946   1.884   1.098
  507SOL    HW1 1184   0.905   1.962   1.060
  507SOL    HW2 1185   1.040   1.902   1.093
  507SOL     MW 1186   0.952   1.896   1.093
  508SOL     OW 1187   1.575   2.488   0.464
  508SOL    HW1 1188   1.614   2.488   0.551
  508SOL    HW2 1189   1.516   2.564   0.464
  508SOL     MW 1190   1.572   2.499   0.475
  509SOL     OW 1191   0.972   1.992   1.353
  509SOL    HW1 1192   0.978   1.954   1.266
  509SOL    HW2 1193   0.961   2.086   1.338
  509SOL     MW 1194   0.973   2.000   1.341
  510SOL     OW 1195   1.611   2.449   1.464
  510SOL    HW1 1196   1.592   2.358   1.443
  510SOL    HW2 1197   1.589   2.498   1.385
  510SOL     MW 1198   1.606   2.442   1.451
  511SOL     OW 1199   1.058   2.187   1.570
  511SOL    HW1 1200   1.024   2.226   1.489
  511SOL    HW2 1201   1.036   2.095   1.563
  511SOL     MW 1202   1.051   2.180   1.560
  512SOL     OW 1203   0.188   2.088   0.659
  512SOL    HW1 1204   0.179   2.028   0.585
  512SOL    HW2 1205   0.121   2.059   0.722
  512SOL     MW 1206   0.178   2.075   0.657
  513SOL     OW 1207   0.135   2.261   1.022
  513SOL    HW1 1208   0.107   2.352   1.031
  513SOL    HW2 1209   0.072   2.222   0.961
  513SOL     MW 1210   0.122   2.267   1.016
  514SOL     OW 1211   0.760   2.093   0.100
  514SOL    HW1 1212   0.708   2.013   0.088
  514SOL    HW2 1213   0.847   2.070   0.068
  514SOL     MW 1214   0.763   2.079   0.094
  515SOL     OW 1215   0.743   1.991   1.518
  515SOL    HW1 1216   0.720   1.899   1.520
  515SOL    HW2 1217   0.829   1.993   1.475
  515SOL     MW 1218   0.750   1.981   1.514
  516SOL     OW 1219   1.404   2.040   1.828
  516SOL    HW1 1220   1.460   1.967   1.854
  516SOL    HW2 1221   1.374   2.078   1.910
  516SOL     MW 1222   1.408   2.035   1.841
  517SOL     OW 1223   1.794   2.533   0.945
  517SOL    HW1 1224   1.883   2.563   0.927
  517SOL    HW2 1225   1.774   2.473   0.874
  517SOL     MW 1226   1.803   2.530   0.934
  518SOL     OW 1227   1.645   2.712   1.825
  518SOL    HW1 1228   1.700   2.636   1.806
  518SOL    HW2 1229   1.647   2.720   1.920
  518SOL     MW 1230   1.653   2.703   1.833
  519SOL     OW 1231   1.133   2.090   0.259
  519SOL    HW1 1232   1.066   2.066   0.196
  519SOL    HW2 1233   1.198   2.139   0.208
  519SOL     MW 1234   1.133   2.092   0.244
  520SOL     OW 1235   0.940   2.274   1.344
  520SOL    HW1 1236   0.859   2.315   1.372
  520SOL    HW2 1237   0.987   2.342   1.296
  520SOL     MW 1238   0.935   2.289   1.342
  521SOL     OW 1239   0.422   2.077   1.583
  521SOL    HW1 1240   0.343   2.095   1.635
  521SOL    HW2 1241   0.417   2.139   1.510
  521SOL     MW 1242   0.412   2.087   1.580
  522SOL     OW 1243   1.328   2.142   0.782
  522SOL    HW1 1244   1.356   2.074   0.843
  522SOL    HW2 1245   1.242   2.113   0.752
  522SOL     MW 1246   1.321   2.129   0.786
  523SOL     OW 1247   1.308   2.246   0.117
  523SOL    HW1 1248   1.281   2.312   0.053
  523SOL    HW2 1249   1.378   2.289   0.167
  523SOL     MW 1250   1.313   2.259   0.114
  524SOL     OW 1251   0.976   1.951   0.054
  524SOL    HW1 1252   1.032   1.943  -0.024
  524SOL    HW2 1253   0.953   1.861   0.076
  524SOL     MW 1254   0.981   1.938   0.047
  525SOL     OW 1255   0.387   1.899   1.789
  525SOL    HW1 1256   0.315   1.864   1.737
  525SOL    HW2 1257   0.445   1.940   1.724
  525SOL     MW 1258   0.385   1.900   1.774
  526SOL     OW 1259   1.492   2.172   1.388
  526SOL    HW1 1260   1.439   2.174   1.468
  526SOL    HW2 1261   1.477   2.085   1.351
  526SOL     MW 1262   1.484   2.162   1.393
  527SOL     OW 1263   1.828   2.096   1.261
  527SOL    HW1 1264   1.809   2.163   1.196
  527SOL    HW2 1265   1.885   2.034   1.216
  527SOL     MW 1266   1.832   2.097   1.247
  528SOL     OW 1267   0.757   1.929   0.701
  528SOL    HW1 1268   0.686   1.990   0.683
  528SOL    HW2 1269   0.808   1.926   0.620
  528SOL     MW 1270   0.753   1.935   0.688
  529SOL     OW 1271   1.144   1.933   1.710
  529SOL    HW1 1272   1.139   1.840   1.691
  529SOL    HW2 1273   1.227   1.944   1.756
  529SOL     MW 1274   1.152   1.922   1.714
  530SOL     OW 1275   1.574   2.339   0.228
  530SOL    HW1 1276   1.566   2.410   0.165
  530SOL    HW2 1277   1.592   2.383   0.311
  530SOL     MW 1278   1.575   2.353   0.230
  531SOL     OW 1279   0.434   1.994   0.657
  531SOL    HW1 1280   0.484   2.037   0.588
  531SOL    HW2 1281   0.349   2.038   0.657
  531SOL     MW 1282   0.431   2.007   0.648
  532SOL     OW 1283   1.496   2.131   0.534
  532SOL    HW1 1284   1.418   2.081   0.559
  532SOL    HW2 1285   1.467   2.222   0.534
  532SOL     MW 1286   1.482   2.135   0.537
  533SOL     OW 1287   1.082   2.093   0.693
  533SOL    HW1 1288   1.102   2.168   0.637
  533SOL    HW2 1289   1.062   2.132   0.778
  533SOL     MW 1290   1.083   2.109   0.697
  534SOL     OW 1291   0.444   2.244   1.305
  534SOL    HW1 1292   0.477   2.325   1.345
  534SOL    HW2 1293   0.417   2.270   1.217
  534SOL     MW 1294   0.443   2.258   1.299
  535SOL     OW 1295   0.398   2.211   1.041
  535SOL    HW1 1296   0.428   2.125   1.012
  535SOL    HW2 1297   0.303   2.204   1.044
  535SOL     MW 1298   0.390   2.200   1.039
  536SOL     OW 1299   1.326   2.215   1.593
  536SOL    HW1 1300   1.233   2.199   1.580
  536SOL    HW2 1301   1.352   2.153   1.661
  536SOL     MW 1302   1.316   2.205   1.600
  537SOL     OW 1303   0.541   1.989   0.932
  537SOL    HW1 1304   0.551   1.898   0.958
  537SOL    HW2 1305   0.497   1.985   0.847
  537SOL     MW 1306   0.537   1.977   0.924
  538SOL     OW 1307   1.692   2.311   1.103
  538SOL    HW1 1308   1.625   2.344   1.163
  538SOL    HW2 1309   1.735   2.389   1.069
  538SOL     MW 1310   1.690   2.326   1.107
  539SOL     OW 1311   1.335   2.388   1.270
  539SOL    HW1 1312   1.356   2.389   1.177
  539SOL    HW2 1313   1.380   2.310   1.303
  539SOL     MW 1314   1.342   2.378   1.262
  540SOL     OW 1315   1.828   2.519   1.812
  540SOL    HW1 1316   1.865   2.464   1.881
  540SOL    HW2 1317   1.853   2.476   1.730
  540SOL     MW 1318   1.835   2.507   1.811
  541SOL     OW 1319   1.326   1.903   0.212
  541SOL    HW1 1320   1.400   1.947   0.255
  541SOL    HW2 1321   1.250   1.957   0.234
  541SOL     MW 1322   1.326   1.915   0.220
  542SOL     OW 1323   0.746   2.121   1.044
  542SOL    HW1 1324   0.719   2.123   1.135
  542SOL    HW2 1325   0.676   2.073   0.999
  542SOL     MW 1326   0.734   2.117   1.051
  543SOL     OW 1327   0.759   2.344   0.216
  543SOL    HW1 1328   0.832   2.393   0.179
  543SOL    HW2 1329   0.775   2.253   0.190
  543SOL     MW 1330   0.771   2.339   0.209
  544SOL     OW 1331   1.227   1.940   1.130
  544SOL    HW1 1332   1.282   1.949   1.052
  544SOL    HW2 1333   1.282   1.974   1.201
  544SOL     MW 1334   1.241   1.945   1.129
  545SOL     OW 1335   0.998   2.213   0.958
  545SOL    HW1 1336   0.928   2.165   1.003
  545SOL    HW2 1337   1.030   2.276   1.022
  545SOL     MW 1338   0.993   2.215   0.972
  546SOL     OW 1339   1.454   1.927   1.303
  546SOL    HW1 1340   1.525   1.873   1.267
  546SOL    HW2 1341   1.453   1.906   1.396
  546SOL     MW 1342   1.463   1.918   1.311
  547SOL     OW 1343   0.465   2.319   0.771
  547SOL    HW1 1344   0.536   2.267   0.734
  547SOL    HW2 1345   0.451   2.284   0.858
  547SOL     MW 1346   0.473   2.308   0.778
  548SOL     OW 1347   1.101   2.260   0.495
  548SOL    HW1 1348   1.123   2.197   0.427
  548SOL    HW2 1349   1.006   2.252   0.506
  548SOL     MW 1350   1.091   2.251   0.487
  549SOL     OW 1351   0.186   1.950   0.427
  549SOL    HW1 1352   0.257   1.971   0.366
  549SOL    HW2 1353   0.140   1.878   0.385
  549SOL     MW 1354   0.190   1.944   0.413
  550SOL     OW 1355   0.017   2.417   1.570
  550SOL    HW1 1356   0.081   2.483   1.545
  550SOL    HW2 1357  -0.064   2.444   1.527
  550SOL     MW 1358   0.015   2.429   1.562
  551SOL     OW 1359   0.973   1.921   0.510
  551SOL    HW1 1360   1.010   1.980   0.575
  551SOL    HW2 1361   0.950   1.977   0.436
  551SOL     MW 1362   0.974   1.936   0.509
  552SOL     OW 1363   0.202   2.643   1.511
  552SOL    HW1 1364   0.223   2.712   1.449
  552SOL    HW2 1365   0.282   2.590   1.516
  552SOL     MW 1366   0.215   2.644   1.505
  553SOL     OW 1367   0.353   1.945   1.228
  553SOL    HW1 1368   0.396   2.029   1.248
  553SOL    HW2 1369   0.426   1.883   1.221
  553SOL     MW 1370   0.368   1.948   1.229
  554SOL     OW 1371   1.170   2.471   1.470
  554SOL    HW1 1372   1.206   2.444   1.386
  554SOL    HW2 1373   1.083   2.505   1.449
  554SOL     MW 1374   1.164   2.472   1.457
  555SOL     OW 1375   0.153   2.343   0.695
  555SOL    HW1 1376   0.215   2.350   0.768
  555SOL    HW2 1377   0.153   2.250   0.672
  555SOL     MW 1378   0.161   2.332   0.702
  556SOL     OW 1379   0.639   2.074   1.284
  556SOL    HW1 1380   0.570   2.137   1.305
  556SOL    HW2 1381   0.666   2.038   1.369
  556SOL     MW 1382   0.633   2.077   1.297
  557SOL     OW 1383   1.434   1.927   0.901
  557SOL    HW1 1384   1.522   1.936   0.938
  557SOL    HW2 1385   1.444   1.868   0.827
  557SOL     MW 1386   1.448   1.921   0.895
  558SOL     OW 1387   1.451   2.535   0.011
  558SOL    HW1 1388   1.379   2.511  -0.047
  558SOL    HW2 1389   1.517   2.572  -0.047
  558SOL     MW 1390   1.450   2.537  -0.004
  559SOL     OW 1391   0.846   2.432   0.821
  559SOL    HW1 1392   0.786   2.450   0.893
  559SOL    HW2 1393   0.880   2.344   0.840
  559SOL     MW 1394   0.842   2.422   0.834
  560SOL     OW 1395   1.787   1.931   1.490
  560SOL    HW1 1396   1.708   1.977   1.518
  560SOL    HW2 1397   1.822   1.985   1.419
  560SOL     MW 1398   1.781   1.944   1.484
  561SOL     OW 1399   1.583   2.041   0.297
  561SOL    HW1 1400   1.576   2.045   0.392
  561SOL    HW2 1401   1.595   2.132   0.270
  561SOL     MW 1402   1.584   2.054   0.305
  562SOL     OW 1403   0.199   2.227   1.715
  562SOL    HW1 1404   0.156   2.286   1.652
  562SOL    HW2 1405   0.267   2.282   1.755
  562SOL     MW 1406   0.203   2.242   1.712
  563SOL     OW 1407   1.650   2.024   1.039
  563SOL    HW1 1408   1.695   1.942   1.058
  563SOL    HW2 1409   1.670   2.080   1.115
  563SOL     MW 1410   1.660   2.020   1.051
  564SOL     OW 1411   0.098   1.867   1.138
  564SOL    HW1 1412   0.089   1.868   1.043
  564SOL    HW2 1413   0.192   1.879   1.153
  564SOL     MW 1414   0.110   1.870   1.129
  565SOL     OW 1415   0.311   1.994   0.184
  565SOL    HW1 1416   0.240   2.049   0.152
  565SOL    HW2 1417   0.353   1.960   0.105
  565SOL     MW 1418   0.307   1.996   0.170
  566SOL     OW 1419   0.067   2.093   0.033
  566SOL    HW1 1420   0.034   2.172   0.077
  566SOL    HW2 1421   0.122   2.126  -0.038
  566SOL     MW 1422   0.070   2.107   0.030
  567SOL     OW 1423   0.814   2.346   2.367
  567SOL    HW1 1424   0.789   2.434   2.395
  567SOL    HW2 1425   0.811   2.349   2.271
  567SOL     MW 1426   0.810   2.358   2.359
  568SOL     OW 1427   0.256   2.374   2.295
  568SOL    HW1 1428   0.288   2.462   2.277
  568SOL    HW2 1429   0.244   2.372   2.390
  568SOL     MW 1430   0.259   2.386   2.307
  569SOL     OW 1431   0.655   2.129   2.382
  569SOL    HW1 1432   0.713   2.205   2.384
  569SOL    HW2 1433   0.590   2.150   2.315
  569SOL     MW 1434   0.654   2.141   2.373
  570SOL     OW 1435   1.794   2.180   2.722
  570SOL    HW1 1436   1.731   2.160   2.791
  570SOL    HW2 1437   1.784   2.109   2.659
  570SOL     MW 1438   1.784   2.167   2.723
  571SOL     OW 1439   0.418   2.152   2.234
  571SOL    HW1 1440   0.392   2.114   2.150
  571SOL    HW2 1441   0.355   2.222   2.250
  571SOL     MW 1442   0.407   2.155   2.225
  572SOL     OW 1443   1.850   2.349   2.024
  572SOL    HW1 1444   1.759   2.351   2.052
  572SOL    HW2 1445   1.895   2.411   2.082
  572SOL     MW 1446   1.843   2.357   2.034
  573SOL     OW 1447   1.122   2.533   2.335
  573SOL    HW1 1448   1.148   2.557   2.246
  573SOL    HW2 1449   1.104   2.440   2.331
  573SOL     MW 1450   1.124   2.525   2.322
  574SOL     OW 1451   1.827   1.931   2.553
  574SOL    HW1 1452   1.881   1.882   2.615
  574SOL    HW2 1453   1.770   1.865   2.514
  574SOL     MW 1454   1.827   1.915   2.555
  575SOL     OW 1455   1.575   2.488   2.332
  575SOL    HW1 1456   1.614   2.488   2.419
  575SOL    HW2 1457   1.516   2.564   2.332
  575SOL     MW 1458   1.572   2.499   2.343
  576SOL     OW 1459   0.760   2.093   1.968
  576SOL    HW1 1460   0.708   2.013   1.956
  576SOL    HW2 1461   0.847   2.070   1.936
  576SOL     MW 1462   0.763   2.079   1.962
  577SOL     OW 1463   1.133   2.090   2.127
  577SOL    HW1 1464   1.066   2.066   2.064
  577SOL    HW2 1465   1.198   2.139   2.076
  577SOL     MW 1466   1.133   2.092   2.112
  578SOL     OW 1467   1.308   2.246   1.985
  578SOL    HW1 1468   1.281   2.312   1.921
  578SOL    HW2 1469   1.378   2.289   2.035
  578SOL     MW 1470   1.313   2.259   1.982
  579SOL     OW 1471   0.976   1.951   1.922
  579SOL    HW1 1472   1.032   1.943   1.844
  579SOL    HW2 1473   0.953   1.861   1.944
  579SOL     MW 1474   0.981   1.938   1.915
  580SOL     OW 1475   0.518   2.453   2.032
  580SOL    HW1 1476   0.484   2.509   2.102
  580SOL    HW2 1477   0.589   2.403   2.072
  580SOL     MW 1478   0.524   2.454   2.046
  581SOL     OW 1479   1.574   2.339   2.096
  581SOL    HW1 1480   1.566   2.410   2.033
  581SOL    HW2 1481   1.592   2.383   2.179
  581SOL     MW 1482   1.575   2.353   2.098
  582SOL     OW 1483   1.496   2.131   2.402
  582SOL    HW1 1484   1.418   2.081   2.427
  582SOL    HW2 1485   1.467   2.222   2.402
  582SOL     MW 1486   1.482   2.135   2.405
  583SOL     OW 1487   0.541   1.989   2.800
  583SOL    HW1 1488   0.551   1.898   2.826
  583SOL    HW2 1489   0.497   1.985   2.715
  583SOL     MW 1490   0.537   1.977   2.792
  584SOL     OW 1491   1.326   1.903   2.080
  584SOL    HW1 1492   1.400   1.947   2.123
  584SOL    HW2 1493   1.250   1.957   2.102
  584SOL     MW 1494   1.326   1.915   2.088
  585SOL     OW 1495   0.759   2.344   2.084
  585SOL    HW1 1496   0.832   2.393   2.047
  585SOL    HW2 1497   0.775   2.253   2.058
  585SOL     MW 1498   0.771   2.339   2.077
  586SOL     OW 1499   0.465   2.319   2.639
  586SOL    HW1 1500   0.536   2.267   2.602
  586SOL    HW2 1501   0.451   2.284   2.726
  586SOL     MW 1502   0.473   2.308   2.646
  587SOL     OW 1503   1.101   2.260   2.363
  587SOL    HW1 1504   1.123   2.197   2.295
  587SOL    HW2 1505   1.006   2.252   2.374
  587SOL     MW 1506   1.091   2.251   2.355
  588SOL     OW 1507   0.186   1.950   2.295
  588SOL    HW1 1508   0.257   1.971   2.234
  588SOL    HW2 1509   0.140   1.878   2.253
  588SOL     MW 1510   0.190   1.944   2.281
  589SOL     OW 1511   0.153   2.343   2.563
  589SOL    HW1 1512   0.215   2.350   2.636
  589SOL    HW2 1513   0.153   2.250   2.540
  589SOL     MW 1514   0.161   2.332   2.570
  590SOL     OW 1515   1.583   2.041   2.165
  590SOL    HW1 1516   1.576   2.045   2.260
  590SOL    HW2 1517   1.595   2.132   2.138
  590SOL     MW 1518   1.584   2.054   2.173
  591SOL     OW 1519   0.872   2.604   2.279
  591SOL    HW1 1520   0.852   2.590   2.186
  591SOL    HW2 1521   0.965   2.583   2.286
  591SOL     MW 1522   0.882   2.599   2.268
  592SOL     OW 1523   0.311   1.994   2.052
  592SOL    HW1 1524   0.240   2.049   2.020
  592SOL    HW2 1525   0.353   1.960   1.973
  592SOL     MW 1526   0.307   1.996   2.038
  593SOL     OW 1527   0.067   2.093   1.901
  593SOL    HW1 1528   0.034   2.172   1.945
  593SOL    HW2 1529   0.122   2.126   1.830
  593SOL     MW 1530   0.070   2.107   1.898
  594SOL     OW 1531   2.398   1.022   0.486
  594SOL    HW1 1532   2.488   0.997   0.470
  594SOL    HW2 1533   2.394   1.115   0.463
  594SOL     MW 1534   2.410   1.031   0.481
  595SOL     OW 1535   2.124   0.506   0.427
  595SOL    HW1 1536   2.156   0.594   0.409
  595SOL    HW2 1537   2.112   0.504   0.522
  595SOL     MW 1538   2.127   0.518   0.439
  596SOL     OW 1539   2.202   0.919   1.328
  596SOL    HW1 1540   2.265   0.866   1.279
  596SOL    HW2 1541   2.183   0.993   1.271
  596SOL     MW 1542   2.208   0.921   1.315
  597SOL     OW 1543   2.523   0.261   0.514
  597SOL    HW1 1544   2.581   0.337   0.516
  597SOL    HW2 1545   2.458   0.282   0.447
  597SOL     MW 1546   2.522   0.273   0.505
  598SOL     OW 1547   2.387   0.692   0.680
  598SOL    HW1 1548   2.372   0.612   0.731
  598SOL    HW2 1549   2.469   0.727   0.714
  598SOL     MW 1550   2.395   0.684   0.692
  599SOL     OW 1551   2.275   0.932   0.961
  599SOL    HW1 1552   2.230   0.939   0.877
  599SOL    HW2 1553   2.255   1.015   1.005
  599SOL     MW 1554   2.267   0.944   0.955
  600SOL     OW 1555   1.972   1.778   0.836
  600SOL    HW1 1556   2.061   1.770   0.871
  600SOL    HW2 1557   1.936   1.690   0.841
  600SOL     MW 1558   1.979   1.765   0.841
  601SOL     OW 1559   2.236   1.305   0.871
  601SOL    HW1 1560   2.212   1.358   0.947
  601SOL    HW2 1561   2.292   1.363   0.819
  601SOL     MW 1562   2.240   1.320   0.874
  602SOL     OW 1563   2.206   1.601   1.466
  602SOL    HW1 1564   2.114   1.577   1.451
  602SOL    HW2 1565   2.250   1.518   1.483
  602SOL     MW 1566   2.200   1.586   1.465
  603SOL     OW 1567   2.286   0.284   0.366
  603SOL    HW1 1568   2.260   0.246   0.282
  603SOL    HW2 1569   2.223   0.354   0.382
  603SOL     MW 1570   2.275   0.287   0.357
  604SOL     OW 1571   2.121   1.245   0.403
  604SOL    HW1 1572   2.069   1.313   0.359
  604SOL    HW2 1573   2.118   1.171   0.343
  604SOL     MW 1574   2.113   1.244   0.390
  605SOL     OW 1575   2.004   1.599   1.130
  605SOL    HW1 1576   1.987   1.545   1.207
  605SOL    HW2 1577   1.992   1.689   1.160
  605SOL     MW 1578   2.001   1.603   1.144
  606SOL     OW 1579   2.311   1.701   0.636
  606SOL    HW1 1580   2.343   1.789   0.614
  606SOL    HW2 1581   2.264   1.673   0.558
  606SOL     MW 1582   2.310   1.709   0.623
  607SOL     OW 1583   2.027   1.761   0.213
  607SOL    HW1 1584   2.056   1.851   0.205
  607SOL    HW2 1585   1.977   1.744   0.134
  607SOL     MW 1586   2.025   1.769   0.202
  608SOL     OW 1587   2.056   0.220   0.659
  608SOL    HW1 1588   2.047   0.160   0.585
  608SOL    HW2 1589   1.989   0.191   0.722
  608SOL     MW 1590   2.046   0.207   0.657
  609SOL     OW 1591   2.003   0.393   1.022
  609SOL    HW1 1592   1.975   0.484   1.031
  609SOL    HW2 1593   1.940   0.354   0.961
  609SOL     MW 1594   1.990   0.399   1.016
  610SOL     OW 1595   2.462   1.731   0.328
  610SOL    HW1 1596   2.383   1.689   0.361
  610SOL    HW2 1597   2.528   1.714   0.395
  610SOL     MW 1598   2.461   1.723   0.341
  611SOL     OW 1599   1.987   0.668   1.192
  611SOL    HW1 1600   2.049   0.698   1.258
  611SOL    HW2 1601   1.921   0.737   1.186
  611SOL     MW 1602   1.986   0.681   1.199
  612SOL     OW 1603   2.082   1.777   1.644
  612SOL    HW1 1604   2.056   1.845   1.582
  612SOL    HW2 1605   2.130   1.714   1.592
  612SOL     MW 1606   2.084   1.777   1.630
  613SOL     OW 1607   2.134   1.096   1.151
  613SOL    HW1 1608   2.187   1.171   1.176
  613SOL    HW2 1609   2.053   1.134   1.117
  613SOL     MW 1610   2.130   1.111   1.151
  614SOL     OW 1611   1.989   0.865   0.557
  614SOL    HW1 1612   2.080   0.880   0.584
  614SOL    HW2 1613   1.992   0.786   0.503
  614SOL     MW 1614   2.001   0.857   0.555
  615SOL     OW 1615   2.225   0.573   1.811
  615SOL    HW1 1616   2.172   0.653   1.818
  615SOL    HW2 1617   2.295   0.585   1.876
  615SOL     MW 1618   2.227   0.586   1.819
  616SOL     OW 1619   2.295   0.647   1.557
  616SOL    HW1 1620   2.375   0.697   1.543
  616SOL    HW2 1621   2.286   0.641   1.652
  616SOL     MW 1622   2.304   0.653   1.567
  617SOL     OW 1623   1.997   1.477   0.596
  617SOL    HW1 1624   1.969   1.516   0.678
  617SOL    HW2 1625   2.017   1.386   0.618
  617SOL     MW 1626   1.995   1.469   0.609
  618SOL     OW 1627   2.563   1.577   0.036
  618SOL    HW1 1628   2.503   1.646   0.006
  618SOL    HW2 1629   2.508   1.519   0.089
  618SOL     MW 1630   2.547   1.579   0.038
  619SOL     OW 1631   2.520   0.939   0.771
  619SOL    HW1 1632   2.431   0.930   0.804
  619SOL    HW2 1633   2.524   1.029   0.739
  619SOL     MW 1634   2.509   0.950   0.771
  620SOL     OW 1635   2.290   0.209   1.583
  620SOL    HW1 1636   2.211   0.227   1.635
  620SOL    HW2 1637   2.285   0.271   1.510
  620SOL     MW 1638   2.280   0.219   1.580
  621SOL     OW 1639   2.194   1.621   0.425
  621SOL    HW1 1640   2.155   1.668   0.351
  621SOL    HW2 1641   2.128   1.556   0.450
  621SOL     MW 1642   2.181   1.619   0.419
  622SOL     OW 1643   2.001   1.208   0.716
  622SOL    HW1 1644   2.065   1.240   0.779
  622SOL    HW2 1645   2.050   1.144   0.664
  622SOL     MW 1646   2.016   1.204   0.717
  623SOL     OW 1647   2.077   1.526   1.838
  623SOL    HW1 1648   2.133   1.450   1.853
  623SOL    HW2 1649   2.026   1.504   1.760
  623SOL     MW 1650   2.077   1.513   1.829
  624SOL     OW 1651   2.255   0.031   1.789
  624SOL    HW1 1652   2.183  -0.004   1.737
  624SOL    HW2 1653   2.313   0.072   1.724
  624SOL     MW 1654   2.253   0.032   1.774
  625SOL     OW 1655   2.279   1.521   1.088
  625SOL    HW1 1656   2.324   1.583   1.145
  625SOL    HW2 1657   2.186   1.540   1.101
  625SOL     MW 1658   2.272   1.531   1.095
  626SOL     OW 1659   2.343   0.972   0.051
  626SOL    HW1 1660   2.266   0.985   0.107
  626SOL    HW2 1661   2.307   0.936  -0.030
  626SOL     MW 1662   2.329   0.968   0.048
  627SOL     OW 1663   2.496   1.294   0.986
  627SOL    HW1 1664   2.489   1.273   1.080
  627SOL    HW2 1665   2.414   1.262   0.949
  627SOL     MW 1666   2.484   1.288   0.993
  628SOL     OW 1667   1.942   1.386   1.649
  628SOL    HW1 1668   1.986   1.319   1.595
  628SOL    HW2 1669   1.857   1.348   1.669
  628SOL     MW 1670   1.937   1.372   1.645
  629SOL     OW 1671   2.383   1.301   0.450
  629SOL    HW1 1672   2.376   1.333   0.540
  629SOL    HW2 1673   2.293   1.285   0.422
  629SOL     MW 1674   2.371   1.303   0.457
  630SOL     OW 1675   2.386   0.585   0.164
  630SOL    HW1 1676   2.352   0.641   0.234
  630SOL    HW2 1677   2.457   0.535   0.204
  630SOL     MW 1678   2.392   0.586   0.178
  631SOL     OW 1679   2.302   0.126   0.657
  631SOL    HW1 1680   2.352   0.169   0.588
  631SOL    HW2 1681   2.217   0.170   0.657
  631SOL     MW 1682   2.299   0.139   0.648
  632SOL     OW 1683   2.061   1.188   1.517
  632SOL    HW1 1684   2.089   1.141   1.595
  632SOL    HW2 1685   1.982   1.143   1.488
  632SOL     MW 1686   2.054   1.177   1.523
  633SOL     OW 1687   2.224   0.911   0.697
  633SOL    HW1 1688   2.282   0.967   0.645
  633SOL    HW2 1689   2.268   0.826   0.699
  633SOL     MW 1690   2.237   0.908   0.690
  634SOL     OW 1691   1.931   1.511   0.869
  634SOL    HW1 1692   1.963   1.515   0.960
  634SOL    HW2 1693   1.836   1.519   0.877
  634SOL     MW 1694   1.923   1.514   0.882
  635SOL     OW 1695   1.886   0.637   0.416
  635SOL    HW1 1696   1.826   0.609   0.486
  635SOL    HW2 1697   1.960   0.577   0.422
  635SOL     MW 1698   1.888   0.626   0.425
  636SOL     OW 1699   2.312   0.376   1.305
  636SOL    HW1 1700   2.345   0.457   1.345
  636SOL    HW2 1701   2.285   0.402   1.217
  636SOL     MW 1702   2.311   0.390   1.299
  637SOL     OW 1703   2.266   0.343   1.041
  637SOL    HW1 1704   2.296   0.257   1.012
  637SOL    HW2 1705   2.171   0.336   1.044
  637SOL     MW 1706   2.258   0.332   1.039
  638SOL     OW 1707   2.409   0.121   0.932
  638SOL    HW1 1708   2.419   0.030   0.958
  638SOL    HW2 1709   2.365   0.117   0.847
  638SOL     MW 1710   2.405   0.109   0.924
  639SOL     OW 1711   2.503   1.736   1.478
  639SOL    HW1 1712   2.420   1.721   1.523
  639SOL    HW2 1713   2.562   1.669   1.513
  639SOL     MW 1714   2.501   1.726   1.488
  640SOL     OW 1715   2.330   1.273   1.221
  640SOL    HW1 1716   2.342   1.300   1.312
  640SOL    HW2 1717   2.311   1.354   1.174
  640SOL     MW 1718   2.329   1.288   1.226
  641SOL     OW 1719   2.444   1.061   1.555
  641SOL    HW1 1720   2.481   1.066   1.467
  641SOL    HW2 1721   2.483   1.134   1.602
  641SOL     MW 1722   2.454   1.071   1.550
  642SOL     OW 1723   2.102   0.985   0.314
  642SOL    HW1 1724   2.039   1.001   0.243
  642SOL    HW2 1725   2.049   0.948   0.385
  642SOL     MW 1726   2.087   0.982   0.314
  643SOL     OW 1727   2.458   1.339   0.173
  643SOL    HW1 1728   2.473   1.315   0.265
  643SOL    HW2 1729   2.366   1.317   0.157
  643SOL     MW 1730   2.448   1.332   0.183
  644SOL     OW 1731   2.256   1.728   0.894
  644SOL    HW1 1732   2.260   1.639   0.929
  644SOL    HW2 1733   2.282   1.719   0.803
  644SOL     MW 1734   2.259   1.716   0.886
  645SOL     OW 1735   1.962   1.481   1.388
  645SOL    HW1 1736   1.952   1.439   1.474
  645SOL    HW2 1737   1.883   1.534   1.378
  645SOL     MW 1738   1.951   1.482   1.399
  646SOL     OW 1739   2.517   0.781   1.578
  646SOL    HW1 1740   2.510   0.876   1.566
  646SOL    HW2 1741   2.526   0.770   1.673
  646SOL     MW 1742   2.518   0.793   1.588
  647SOL     OW 1743   2.238   1.296   1.836
  647SOL    HW1 1744   2.310   1.298   1.773
  647SOL    HW2 1745   2.208   1.205   1.835
  647SOL     MW 1746   2.243   1.285   1.828
  648SOL     OW 1747   2.333   0.451   0.771
  648SOL    HW1 1748   2.404   0.399   0.734
  648SOL    HW2 1749   2.319   0.416   0.858
  648SOL     MW 1750   2.341   0.440   0.778
  649SOL     OW 1751   1.888   1.786   1.843
  649SOL    HW1 1752   1.938   1.764   1.765
  649SOL    HW2 1753   1.896   1.881   1.851
  649SOL     MW 1754   1.896   1.795   1.834
  650SOL     OW 1755   2.054   0.082   0.427
  650SOL    HW1 1756   2.125   0.103   0.366
  650SOL    HW2 1757   2.008   0.010   0.385
  650SOL     MW 1758   2.058   0.076   0.413
  651SOL     OW 1759   1.885   0.549   1.570
  651SOL    HW1 1760   1.949   0.615   1.545
  651SOL    HW2 1761   1.804   0.576   1.527
  651SOL     MW 1762   1.883   0.561   1.562
  652SOL     OW 1763   2.070   0.775   1.511
  652SOL    HW1 1764   2.091   0.844   1.449
  652SOL    HW2 1765   2.150   0.722   1.516
  652SOL     MW 1766   2.083   0.776   1.505
  653SOL     OW 1767   2.055   0.790   1.778
  653SOL    HW1 1768   1.981   0.734   1.804
  653SOL    HW2 1769   2.050   0.793   1.683
  653SOL     MW 1770   2.044   0.783   1.768
  654SOL     OW 1771   2.221   0.077   1.228
  654SOL    HW1 1772   2.264   0.161   1.248
  654SOL    HW2 1773   2.294   0.015   1.221
  654SOL     MW 1774   2.236   0.080   1.229
  655SOL     OW 1775   2.262   0.744   0.406
  655SOL    HW1 1776   2.262   0.839   0.391
  655SOL    HW2 1777   2.339   0.728   0.460
  655SOL     MW 1778   2.272   0.755   0.411
  656SOL     OW 1779   2.021   0.475   0.695
  656SOL    HW1 1780   2.083   0.482   0.768
  656SOL    HW2 1781   2.021   0.382   0.672
  656SOL     MW 1782   2.029   0.464   0.702
  657SOL     OW 1783   2.507   0.206   1.284
  657SOL    HW1 1784   2.438   0.269   1.305
  657SOL    HW2 1785   2.534   0.170   1.369
  657SOL     MW 1786   2.501   0.209   1.297
  658SOL     OW 1787   1.890   1.047   0.153
  658SOL    HW1 1788   1.859   1.112   0.216
  658SOL    HW2 1789   1.839   0.969   0.172
  658SOL     MW 1790   1.880   1.044   0.163
  659SOL     OW 1791   2.474   1.847   0.095
  659SOL    HW1 1792   2.379   1.847   0.087
  659SOL    HW2 1793   2.490   1.793   0.173
  659SOL     MW 1794   2.464   1.841   0.104
  660SOL     OW 1795   2.202   1.024   1.690
  660SOL    HW1 1796   2.156   0.940   1.692
  660SOL    HW2 1797   2.259   1.018   1.614
  660SOL     MW 1798   2.204   1.012   1.682
  661SOL     OW 1799   2.145   0.691   0.974
  661SOL    HW1 1800   2.095   0.690   1.055
  661SOL    HW2 1801   2.165   0.783   0.958
  661SOL     MW 1802   2.141   0.703   0.982
  662SOL     OW 1803   2.067   0.359   1.715
  662SOL    HW1 1804   2.024   0.418   1.652
  662SOL    HW2 1805   2.135   0.414   1.755
  662SOL     MW 1806   2.071   0.374   1.712
  663SOL     OW 1807   1.966  -0.001   1.138
  663SOL    HW1 1808   1.957   0.000   1.043
  663SOL    HW2 1809   2.060   0.011   1.153
  663SOL     MW 1810   1.978   0.002   1.129
  664SOL     OW 1811   2.295   1.337   1.501
  664SOL    HW1 1812   2.216   1.287   1.524
  664SOL    HW2 1813   2.365   1.296   1.551
  664SOL     MW 1814   2.293   1.325   1.511
  665SOL     OW 1815   2.179   0.126   0.184
  665SOL    HW1 1816   2.108   0.181   0.152
  665SOL    HW2 1817   2.221   0.092   0.105
  665SOL     MW 1818   2.175   0.128   0.170
  666SOL     OW 1819   1.935   0.225   0.033
  666SOL    HW1 1820   1.902   0.304   0.077
  666SOL    HW2 1821   1.990   0.258  -0.038
  666SOL     MW 1822   1.938   0.239   0.030
  667SOL     OW 1823   1.969   1.482   0.222
  667SOL    HW1 1824   1.986   1.566   0.264
  667SOL    HW2 1825   2.004   1.491   0.134
  667SOL     MW 1826   1.974   1.495   0.216
  668SOL     OW 1827   2.398   1.022   2.354
  668SOL    HW1 1828   2.488   0.997   2.338
  668SOL    HW2 1829   2.394   1.115   2.331
  668SOL     MW 1830   2.410   1.031   2.349
  669SOL     OW 1831   2.124   0.506   2.295
  669SOL    HW1 1832   2.156   0.594   2.277
  669SOL    HW2 1833   2.112   0.504   2.390
  669SOL     MW 1834   2.127   0.518   2.307
  670SOL     OW 1835   2.523   0.261   2.382
  670SOL    HW1 1836   2.581   0.337   2.384
  670SOL    HW2 1837   2.458   0.282   2.315
  670SOL     MW 1838   2.522   0.273   2.373
  671SOL     OW 1839   2.286   0.284   2.234
  671SOL    HW1 1840   2.260   0.246   2.150
  671SOL    HW2 1841   2.223   0.354   2.250
  671SOL     MW 1842   2.275   0.287   2.225
  672SOL     OW 1843   2.121   1.245   2.271
  672SOL    HW1 1844   2.069   1.313   2.227
  672SOL    HW2 1845   2.118   1.171   2.211
  672SOL     MW 1846   2.113   1.244   2.258
  673SOL     OW 1847   2.311   1.701   2.504
  673SOL    HW1 1848   2.343   1.789   2.482
  673SOL    HW2 1849   2.264   1.673   2.426
  673SOL     MW 1850   2.310   1.709   2.491
  674SOL     OW 1851   2.027   1.761   2.081
  674SOL    HW1 1852   2.056   1.851   2.073
  674SOL    HW2 1853   1.977   1.744   2.002
  674SOL     MW 1854   2.025   1.769   2.070
  675SOL     OW 1855   2.462   1.731   2.196
  675SOL    HW1 1856   2.383   1.689   2.229
  675SOL    HW2 1857   2.528   1.714   2.263
  675SOL     MW 1858   2.461   1.723   2.209
  676SOL     OW 1859   1.989   0.865   2.425
  676SOL    HW1 1860   2.080   0.880   2.452
  676SOL    HW2 1861   1.992   0.786   2.371
  676SOL     MW 1862   2.001   0.857   2.423
  677SOL     OW 1863   2.194   1.621   2.293
  677SOL    HW1 1864   2.155   1.668   2.219
  677SOL    HW2 1865   2.128   1.556   2.318
  677SOL     MW 1866   2.181   1.619   2.287
  678SOL     OW 1867   2.001   1.208   2.584
  678SOL    HW1 1868   2.065   1.240   2.647
  678SOL    HW2 1869   2.050   1.144   2.532
  678SOL     MW 1870   2.016   1.204   2.585
  679SOL     OW 1871   2.343   0.972   1.919
  679SOL    HW1 1872   2.266   0.985   1.975
  679SOL    HW2 1873   2.307   0.936   1.838
  679SOL     MW 1874   2.329   0.968   1.916
  680SOL     OW 1875   2.383   1.301   2.318
  680SOL    HW1 1876   2.376   1.333   2.408
  680SOL    HW2 1877   2.293   1.285   2.290
  680SOL     MW 1878   2.371   1.303   2.325
  681SOL     OW 1879   2.386   0.585   2.032
  681SOL    HW1 1880   2.352   0.641   2.102
  681SOL    HW2 1881   2.457   0.535   2.072
  681SOL     MW 1882   2.392   0.586   2.046
  682SOL     OW 1883   1.886   0.637   2.284
  682SOL    HW1 1884   1.826   0.609   2.354
  682SOL    HW2 1885   1.960   0.577   2.290
  682SOL     MW 1886   1.888   0.626   2.293
  683SOL     OW 1887   2.409   0.121   2.800
  683SOL    HW1 1888   2.419   0.030   2.826
  683SOL    HW2 1889   2.365   0.117   2.715
  683SOL     MW 1890   2.405   0.109   2.792
  684SOL     OW 1891   2.627   0.476   2.084
  684SOL    HW1 1892   2.700   0.525   2.047
  684SOL    HW2 1893   2.643   0.385   2.058
  684SOL     MW 1894   2.639   0.471   2.077
  685SOL     OW 1895   2.102   0.985   2.182
  685SOL    HW1 1896   2.039   1.001   2.111
  685SOL    HW2 1897   2.049   0.948   2.253
  685SOL     MW 1898   2.087   0.982   2.182
  686SOL     OW 1899   2.458   1.339   2.041
  686SOL    HW1 1900   2.473   1.315   2.133
  686SOL    HW2 1901   2.366   1.317   2.025
  686SOL     MW 1902   2.448   1.332   2.051
  687SOL     OW 1903   2.054   0.082   2.295
  687SOL    HW1 1904   2.125   0.103   2.234
  687SOL    HW2 1905   2.008   0.010   2.253
  687SOL     MW 1906   2.058   0.076   2.281
  688SOL     OW 1907   2.262   0.744   2.274
  688SOL    HW1 1908   2.262   0.839   2.259
  688SOL    HW2 1909   2.339   0.728   2.328
  688SOL     MW 1910   2.272   0.755   2.279
  689SOL     OW 1911   2.021   0.475   2.563
  689SOL    HW1 1912   2.083   0.482   2.636
  689SOL    HW2 1913   2.021   0.382   2.540
  689SOL     MW 1914   2.029   0.464   2.570
  690SOL     OW 1915   1.890   1.047   2.021
  690SOL    HW1 1916   1.859   1.112   2.084
  690SOL    HW2 1917   1.839   0.969   2.040
  690SOL     MW 1918   1.880   1.044   2.031
  691SOL     OW 1919   2.179   0.126   2.052
  691SOL    HW1 1920   2.108   0.181   2.020
  691SOL    HW2 1921   2.221   0.092   1.973
  691SOL     MW 1922   2.175   0.128   2.038
  692SOL     OW 1923   1.935   0.225   1.901
  692SOL    HW1 1924   1.902   0.304   1.945
  692SOL    HW2 1925   1.990   0.258   1.830
  692SOL     MW 1926   1.938   0.239   1.898
  693SOL     OW 1927   1.969   1.482   2.090
  693SOL    HW1 1928   1.986   1.566   2.132
  693SOL    HW2 1929   2.004   1.491   2.002
  693SOL     MW 1930   1.974   1.495   2.084
  694SOL     OW 1931   2.124   2.374   0.427
  694SOL    HW1 1932   2.156   2.462   0.409
  694SOL    HW2 1933   2.112   2.372   0.522
  694SOL     MW 1934   2.127   2.386   0.439
  695SOL     OW 1935   2.523   2.129   0.514
  695SOL    HW1 1936   2.581   2.205   0.516
  695SOL    HW2 1937   2.458   2.150   0.447
  695SOL     MW 1938   2.522   2.141   0.505
  696SOL     OW 1939   2.286   2.152   0.366
  696SOL    HW1 1940   2.260   2.114   0.282
  696SOL    HW2 1941   2.223   2.222   0.382
  696SOL     MW 1942   2.275   2.155   0.357
  697SOL     OW 1943   2.056   2.088   0.659
  697SOL    HW1 1944   2.047   2.028   0.585
  697SOL    HW2 1945   1.989   2.059   0.722
  697SOL     MW 1946   2.046   2.075   0.657
  698SOL     OW 1947   2.003   2.261   1.022
  698SOL    HW1 1948   1.975   2.352   1.031
  698SOL    HW2 1949   1.940   2.222   0.961
  698SOL     MW 1950   1.990   2.267   1.016
  699SOL     OW 1951   2.611   1.991   1.518
  699SOL    HW1 1952   2.588   1.899   1.520
  699SOL    HW2 1953   2.697   1.993   1.475
  699SOL     MW 1954   2.618   1.981   1.514
  700SOL     OW 1955   2.290   2.077   1.583
  700SOL    HW1 1956   2.211   2.095   1.635
  700SOL    HW2 1957   2.285   2.139   1.510
  700SOL     MW 1958   2.280   2.087   1.580
  701SOL     OW 1959   2.255   1.899   1.789
  701SOL    HW1 1960   2.183   1.864   1.737
  701SOL    HW2 1961   2.313   1.940   1.724
  701SOL     MW 1962   2.253   1.900   1.774
  702SOL     OW 1963   2.585   2.586   1.831
  702SOL    HW1 1964   2.655   2.528   1.803
  702SOL    HW2 1965   2.528   2.531   1.886
  702SOL     MW 1966   2.587   2.573   1.835
  703SOL     OW 1967   2.302   1.994   0.657
  703SOL    HW1 1968   2.352   2.037   0.588
  703SOL    HW2 1969   2.217   2.038   0.657
  703SOL     MW 1970   2.299   2.007   0.648
  704SOL     OW 1971   2.312   2.244   1.305
  704SOL    HW1 1972   2.345   2.325   1.345
  704SOL    HW2 1973   2.285   2.270   1.217
  704SOL     MW 1974   2.311   2.258   1.299
  705SOL     OW 1975   2.266   2.211   1.041
  705SOL    HW1 1976   2.296   2.125   1.012
  705SOL    HW2 1977   2.171   2.204   1.044
  705SOL     MW 1978   2.258   2.200   1.039
  706SOL     OW 1979   2.409   1.989   0.932
  706SOL    HW1 1980   2.419   1.898   0.958
  706SOL    HW2 1981   2.365   1.985   0.847
  706SOL     MW 1982   2.405   1.977   0.924
  707SOL     OW 1983   2.517   2.649   1.578
  707SOL    HW1 1984   2.510   2.744   1.566
  707SOL    HW2 1985   2.526   2.638   1.673
  707SOL     MW 1986   2.518   2.661   1.588
  708SOL     OW 1987   2.333   2.319   0.771
  708SOL    HW1 1988   2.404   2.267   0.734
  708SOL    HW2 1989   2.319   2.284   0.858
  708SOL     MW 1990   2.341   2.308   0.778
  709SOL     OW 1991   2.054   1.950   0.427
  709SOL    HW1 1992   2.125   1.971   0.366
  709SOL    HW2 1993   2.008   1.878   0.385
  709SOL     MW 1994   2.058   1.944   0.413
  710SOL     OW 1995   2.070   2.643   1.511
  710SOL    HW1 1996   2.091   2.712   1.449
  710SOL    HW2 1997   2.150   2.590   1.516
  710SOL     MW 1998   2.083   2.644   1.505
  711SOL     OW 1999   2.221   1.945   1.228
  711SOL    HW1 2000   2.264   2.029   1.248
  711SOL    HW2 2001   2.294   1.883   1.221
  711SOL     MW 2002   2.236   1.948   1.229
  712SOL     OW 2003   2.021   2.343   0.695
  712SOL    HW1 2004   2.083   2.350   0.768
  712SOL    HW2 2005   2.021   2.250   0.672
  712SOL     MW 2006   2.029   2.332   0.702
  713SOL     OW 2007   2.507   2.074   1.284
  713SOL    HW1 2008   2.438   2.137   1.305
  713SOL    HW2 2009   2.534   2.038   1.369
  713SOL     MW 2010   2.501   2.077   1.297
  714SOL     OW 2011   2.067   2.227   1.715
  714SOL    HW1 2012   2.024   2.286   1.652
  714SOL    HW2 2013   2.135   2.282   1.755
  714SOL     MW 2014   2.071   2.242   1.712
  715SOL     OW 2015   1.966   1.867   1.138
  715SOL    HW1 2016   1.957   1.868   1.043
  715SOL    HW2 2017   2.060   1.879   1.153
  715SOL     MW 2018   1.978   1.870   1.129
  716SOL     OW 2019   2.179   1.994   0.184
  716SOL    HW1 2020   2.108   2.049   0.152
  716SOL    HW2 2021   2.221   1.960   0.105
  716SOL     MW 2022   2.175   1.996   0.170
  717SOL     OW 2023   1.935   2.093   0.033
  717SOL    HW1 2024   1.902   2.172   0.077
  717SOL    HW2 2025   1.990   2.126  -0.038
  717SOL     MW 2026   1.938   2.107   0.030
  718SOL     OW 2027   2.124   2.374   2.295
  718SOL    HW1 2028   2.156   2.462   2.277
  718SOL    HW2 2029   2.112   2.372   2.390
  718SOL     MW 2030   2.127   2.386   2.307
  719SOL     OW 2031   2.523   2.129   2.382
  719SOL    HW1 2032   2.581   2.205   2.384
  719SOL    HW2 2033   2.458   2.150   2.315
  719SOL     MW 2034   2.522   2.141   2.373
  720SOL     OW 2035   2.387   2.560   2.548
  720SOL    HW1 2036   2.372   2.480   2.599
  720SOL    HW2 2037   2.469   2.595   2.582
  720SOL     MW 2038   2.395   2.552   2.560
  721SOL     OW 2039   2.286   2.152   2.234
  721SOL    HW1 2040   2.260   2.114   2.150
  721SOL    HW2 2041   2.223   2.222   2.250
  721SOL     MW 2042   2.275   2.155   2.225
  722SOL     OW 2043   2.386   2.453   2.032
  722SOL    HW1 2044   2.352   2.509   2.102
  722SOL    HW2 2045   2.457   2.403   2.072
  722SOL     MW 2046   2.392   2.454   2.046
  723SOL     OW 2047   2.409   1.989   2.800
  723SOL    HW1 2048   2.419   1.898   2.826
  723SOL    HW2 2049   2.365   1.985   2.715
  723SOL     MW 2050   2.405   1.977   2.792
  724SOL     OW 2051   2.627   2.344   2.084
  724SOL    HW1 2052   2.700   2.393   2.047
  724SOL    HW2 2053   2.643   2.253   2.058
  724SOL     MW 2054   2.639   2.339   2.077
  725SOL     OW 2055   2.333   2.319   2.639
  725SOL    HW1 2056   2.404   2.267   2.602
  725SOL    HW2 2057   2.319   2.284   2.726
  725SOL     MW 2058   2.341   2.308   2.646
  726SOL     OW 2059   2.054   1.950   2.295
  726SOL    HW1 2060   2.125   1.971   2.234
  726SOL    HW2 2061   2.008   1.878   2.253
  726SOL     MW 2062   2.058   1.944   2.281
  727SOL     OW 2063   2.179   1.994   2.052
  727SOL    HW1 2064   2.108   2.049   2.020
  727SOL    HW2 2065   2.221   1.960   1.973
  727SOL     MW 2066   2.175   1.996   2.038
  728SOL     OW 2067   1.935   2.093   1.901
  728SOL    HW1 2068   1.902   2.172   1.945
  728SOL    HW2 2069   1.990   2.126   1.830
  728SOL     MW 2070   1.938   2.107   1.898
  729NA      NA 2071   1.563   1.569   0.184
  730NA      NA 2072   2.021   2.343   2.563
  731CL      CL 2073   0.515   1.301   0.450
  732CL      CL 2074   1.787   0.063   1.490
   2.52380   2.52380   2.52380
