Protein in water
 1577
  221TRP      N    1   1.065   1.114   1.311
  221TRP     H1    2   0.978   1.157   1.332
  221TRP     H2    3   1.074   1.103   1.212
  221TRP     H3    4   1.070   1.024   1.355
  221TRP     CA    5   1.175   1.199   1.361
  221TRP     HA    6   1.162   1.206   1.460
  221TRP     CB    7   1.308   1.131   1.327
  221TRP    HB1    8   1.377   1.201   1.308
  221TRP    HB2    9   1.296   1.074   1.246
  221TRP     CG   10   1.362   1.043   1.436
  221TRP    CD1   11   1.326   0.916   1.462
  221TRP    HD1   12   1.261   0.862   1.409
  221TRP    NE1   13   1.393   0.871   1.575
  221TRP    HE1   14   1.382   0.779   1.614
  221TRP    CE2   15   1.476   0.968   1.626
  221TRP    CZ2   16   1.563   0.972   1.737
  221TRP    HZ2   17   1.573   0.892   1.796
  221TRP    CH2   18   1.635   1.090   1.763
  221TRP    HH2   19   1.697   1.094   1.841
  221TRP    CZ3   20   1.619   1.201   1.679
  221TRP    HZ3   21   1.671   1.285   1.698
  221TRP    CE3   22   1.532   1.197   1.569
  221TRP    HE3   23   1.521   1.277   1.511
  221TRP    CD2   24   1.458   1.080   1.540
  221TRP      C   25   1.169   1.342   1.305
  221TRP      O   26   1.184   1.438   1.380
  222ILE      N   27   1.136   1.358   1.176
  222ILE      H   28   1.116   1.277   1.121
  222ILE     CA   29   1.127   1.491   1.113
  222ILE     HA   30   1.213   1.537   1.132
  222ILE     CB   31   1.111   1.476   0.959
  222ILE     HB   32   1.032   1.417   0.943
  222ILE    CG2   33   1.085   1.611   0.892
  222ILE   HG21   34   1.075   1.598   0.793
  222ILE   HG22   35   1.001   1.651   0.928
  222ILE   HG23   36   1.162   1.673   0.909
  222ILE    CG1   37   1.237   1.410   0.898
  222ILE   HG11   38   1.263   1.332   0.955
  222ILE   HG12   39   1.311   1.477   0.899
  222ILE     CD   40   1.218   1.361   0.754
  222ILE    HD1   41   1.304   1.320   0.721
  222ILE    HD2   42   1.145   1.293   0.751
  222ILE    HD3   43   1.194   1.439   0.695
  222ILE      C   44   1.014   1.574   1.176
  222ILE    OC1   45   0.923   1.535   1.186
  222ILE    OC2   46   1.036   1.690   1.213
  223SOL     OW   47   0.230   0.628   0.113
  223SOL    HW1   48   0.137   0.626   0.150
  223SOL    HW2   49   0.231   0.589   0.021
  224SOL     OW   50   0.225   0.275   0.996
  224SOL    HW1   51   0.260   0.258   1.088
  224SOL    HW2   52   0.137   0.230   0.984
  225SOL     OW   53   0.019   0.368   0.647
  225SOL    HW1   54  -0.063   0.411   0.686
  225SOL    HW2   55  -0.009   0.295   0.584
  226SOL     OW   56   0.569   1.275   1.165
  226SOL    HW1   57   0.476   1.268   1.128
  226SOL    HW2   58   0.580   1.364   1.209
  227SOL     OW   59   1.555   1.511   0.703
  227SOL    HW1   60   1.498   1.495   0.784
  227SOL    HW2   61   1.496   1.521   0.623
  228SOL     OW   62   1.135   0.703   0.717
  228SOL    HW1   63   1.192   0.781   0.692
  228SOL    HW2   64   1.075   0.729   0.793
  229SOL     OW   65   1.755   0.607   0.231
  229SOL    HW1   66   1.743   0.594   0.132
  229SOL    HW2   67   1.725   0.526   0.280
  230SOL     OW   68   0.768   1.144   1.023
  230SOL    HW1   69   0.690   1.161   1.083
  230SOL    HW2   70   0.802   1.231   0.987
  231SOL     OW   71   0.850   0.798   1.823
  231SOL    HW1   72   0.846   0.874   1.888
  231SOL    HW2   73   0.872   0.834   1.732
  232SOL     OW   74   0.685   1.012   0.665
  232SOL    HW1   75   0.754   0.996   0.735
  232SOL    HW2   76   0.612   1.069   0.703
  233SOL     OW   77   0.686   1.161   1.803
  233SOL    HW1   78   0.746   1.240   1.817
  233SOL    HW2   79   0.600   1.192   1.762
  234SOL     OW   80   0.335   1.435   1.061
  234SOL    HW1   81   0.257   1.404   1.008
  234SOL    HW2   82   0.393   1.493   1.004
  235SOL     OW   83   1.460   1.505   1.339
  235SOL    HW1   84   1.484   1.599   1.365
  235SOL    HW2   85   1.444   1.451   1.421
  236SOL     OW   86   0.438   0.392   1.499
  236SOL    HW1   87   0.520   0.336   1.508
  236SOL    HW2   88   0.357   0.334   1.503
  237SOL     OW   89   1.603   0.447   0.737
  237SOL    HW1   90   1.529   0.493   0.687
  237SOL    HW2   91   1.654   0.515   0.790
  238SOL     OW   92   0.231   1.713   0.483
  238SOL    HW1   93   0.265   1.790   0.537
  238SOL    HW2   94   0.275   1.713   0.393
  239SOL     OW   95   1.127   1.341   1.690
  239SOL    HW1   96   1.174   1.341   1.778
  239SOL    HW2   97   1.079   1.254   1.679
  240SOL     OW   98   0.230   1.434   0.538
  240SOL    HW1   99   0.204   1.530   0.538
  240SOL    HW2  100   0.159   1.380   0.583
  241SOL     OW  101   0.240   1.091   0.886
  241SOL    HW1  102   0.254   1.007   0.938
  241SOL    HW2  103   0.185   1.155   0.941
  242SOL     OW  104   0.620   1.786   1.439
  242SOL    HW1  105   0.528   1.769   1.474
  242SOL    HW2  106   0.648   1.878   1.465
  243SOL     OW  107   0.606   0.964   0.123
  243SOL    HW1  108   0.613   1.048   0.069
  243SOL    HW2  109   0.652   0.977   0.211
  244SOL     OW  110   1.594   0.114   1.480
  244SOL    HW1  111   1.576   0.181   1.408
  244SOL    HW2  112   1.591   0.160   1.569
  245SOL     OW  113   0.122   0.643   0.563
  245SOL    HW1  114   0.077   0.555   0.580
  245SOL    HW2  115   0.121   0.697   0.647
  246SOL     OW  116   1.842   1.767   0.359
  246SOL    HW1  117   1.896   1.738   0.439
  246SOL    HW2  118   1.872   1.857   0.330
  247SOL     OW  119   0.027   1.596   0.117
  247SOL    HW1  120   0.008   1.500   0.138
  247SOL    HW2  121  -0.006   1.654   0.192
  248SOL     OW  122   1.689   0.922   0.612
  248SOL    HW1  123   1.784   0.893   0.620
  248SOL    HW2  124   1.681   0.987   0.537
  249SOL     OW  125   1.641   1.108   0.432
  249SOL    HW1  126   1.727   1.110   0.380
  249SOL    HW2  127   1.655   1.155   0.520
  250SOL     OW  128   0.113   0.737   1.597
  250SOL    HW1  129   0.201   0.724   1.642
  250SOL    HW2  130   0.100   0.834   1.575
  251SOL     OW  131   0.613   1.365   0.726
  251SOL    HW1  132   0.564   1.278   0.735
  251SOL    HW2  133   0.590   1.408   0.639
  252SOL     OW  134   0.809   0.004   0.502
  252SOL    HW1  135   0.849   0.095   0.493
  252SOL    HW2  136   0.709   0.012   0.508
  253SOL     OW  137   0.197   0.976   1.264
  253SOL    HW1  138   0.286   0.931   1.250
  253SOL    HW2  139   0.124   0.911   1.245
  254SOL     OW  140   1.525   0.999   0.190
  254SOL    HW1  141   1.462   0.923   0.203
  254SOL    HW2  142   1.573   1.017   0.276
  255SOL     OW  143   1.187   1.792   1.616
  255SOL    HW1  144   1.211   1.852   1.540
  255SOL    HW2  145   1.194   1.697   1.586
  256SOL     OW  146   0.317   0.251   1.801
  256SOL    HW1  147   0.388   0.322   1.807
  256SOL    HW2  148   0.229   0.290   1.829
  257SOL     OW  149   1.466   1.417   0.953
  257SOL    HW1  150   1.407   1.423   1.033
  257SOL    HW2  151   1.451   1.329   0.907
  258SOL     OW  152   1.667   1.714   0.572
  258SOL    HW1  153   1.626   1.691   0.484
  258SOL    HW2  154   1.649   1.640   0.637
  259SOL     OW  155   0.598   0.729   0.270
  259SOL    HW1  156   0.622   0.798   0.202
  259SOL    HW2  157   0.520   0.762   0.324
  260SOL     OW  158   1.281   0.345   0.944
  260SOL    HW1  159   1.195   0.295   0.931
  260SOL    HW2  160   1.343   0.291   1.000
  261SOL     OW  161   1.576   1.662   0.307
  261SOL    HW1  162   1.665   1.708   0.310
  261SOL    HW2  163   1.555   1.638   0.212
  262SOL     OW  164   0.807   0.605   1.465
  262SOL    HW1  165   0.760   0.602   1.554
  262SOL    HW2  166   0.756   0.550   1.399
  263SOL     OW  167   1.394   0.469   1.674
  263SOL    HW1  168   1.374   0.512   1.762
  263SOL    HW2  169   1.472   0.407   1.683
  264SOL     OW  170   0.973   0.890   1.572
  264SOL    HW1  171   1.019   0.806   1.543
  264SOL    HW2  172   0.917   0.924   1.497
  265SOL     OW  173   0.991   0.410   1.242
  265SOL    HW1  174   0.914   0.444   1.296
  265SOL    HW2  175   0.957   0.359   1.163
  266SOL     OW  176   1.041   0.701   0.429
  266SOL    HW1  177   1.067   0.697   0.525
  266SOL    HW2  178   0.956   0.650   0.415
  267SOL     OW  179   0.076   0.811   0.789
  267SOL    HW1  180   0.175   0.799   0.798
  267SOL    HW2  181   0.052   0.906   0.810
  268SOL     OW  182   0.130   1.821   1.571
  268SOL    HW1  183   0.120   1.806   1.670
  268SOL    HW2  184   0.044   1.857   1.535
  269SOL     OW  185   0.865   0.348   0.195
  269SOL    HW1  186   0.924   0.411   0.146
  269SOL    HW2  187   0.884   0.254   0.166
  270SOL     OW  188   1.719   0.585   1.831
  270SOL    HW1  189   1.693   0.674   1.795
  270SOL    HW2  190   1.717   0.517   1.758
  271SOL     OW  191   1.362   1.144   0.545
  271SOL    HW1  192   1.445   1.115   0.497
  271SOL    HW2  193   1.313   1.211   0.489
  272SOL     OW  194   0.550   0.196   0.885
  272SOL    HW1  195   0.545   0.191   0.985
  272SOL    HW2  196   0.552   0.292   0.856
  273SOL     OW  197   1.008   1.456   0.477
  273SOL    HW1  198   0.962   1.528   0.425
  273SOL    HW2  199   1.004   1.476   0.575
  274SOL     OW  200   0.351   1.801   0.853
  274SOL    HW1  201   0.401   1.715   0.859
  274SOL    HW2  202   0.416   1.878   0.850
  275SOL     OW  203   1.795   1.066   0.873
  275SOL    HW1  204   1.733   1.051   0.797
  275SOL    HW2  205   1.743   1.077   0.958
  276SOL     OW  206   0.321   0.943   0.242
  276SOL    HW1  207   0.403   0.982   0.200
  276SOL    HW2  208   0.294   0.861   0.193
  277SOL     OW  209   1.458   0.735   0.728
  277SOL    HW1  210   1.453   0.670   0.803
  277SOL    HW2  211   1.538   0.794   0.741
  278SOL     OW  212   0.461   1.266   1.727
  278SOL    HW1  213   0.411   1.267   1.641
  278SOL    HW2  214   0.398   1.248   1.803
  279SOL     OW  215   1.111   1.776   0.237
  279SOL    HW1  216   1.051   1.714   0.287
  279SOL    HW2  217   1.142   1.732   0.152
  280SOL     OW  218   0.202   0.285   1.498
  280SOL    HW1  219   0.122   0.345   1.485
  280SOL    HW2  220   0.192   0.236   1.584
  281SOL     OW  221   1.632   1.377   0.081
  281SOL    HW1  222   1.600   1.471   0.071
  281SOL    HW2  223   1.556   1.314   0.069
  282SOL     OW  224   0.464   1.743   0.323
  282SOL    HW1  225   0.497   1.782   0.409
  282SOL    HW2  226   0.540   1.736   0.258
  283SOL     OW  227   1.400   0.107   0.426
  283SOL    HW1  228   1.376   0.070   0.336
  283SOL    HW2  229   1.499   0.123   0.430
  284SOL     OW  230   0.249   1.785   1.241
  284SOL    HW1  231   0.306   1.720   1.291
  284SOL    HW2  232   0.233   1.752   1.148
  285SOL     OW  233   0.382   0.700   0.480
  285SOL    HW1  234   0.427   0.610   0.477
  285SOL    HW2  235   0.288   0.689   0.513
  286SOL     OW  236   1.547   0.222   1.729
  286SOL    HW1  237   1.542   0.259   1.821
  286SOL    HW2  238   1.475   0.153   1.717
  287SOL     OW  239   0.614   0.122   0.117
  287SOL    HW1  240   0.712   0.100   0.124
  287SOL    HW2  241   0.583   0.105   0.024
  288SOL     OW  242   0.781   0.264   1.749
  288SOL    HW1  243   0.848   0.203   1.792
  288SOL    HW2  244   0.708   0.283   1.814
  289SOL     OW  245   1.351   0.590   1.433
  289SOL    HW1  246   1.379   0.547   1.518
  289SOL    HW2  247   1.376   0.686   1.434
  290SOL     OW  248   0.803   1.402   0.924
  290SOL    HW1  249   0.893   1.416   0.882
  290SOL    HW2  250   0.732   1.404   0.853
  291SOL     OW  251   0.922   0.503   0.899
  291SOL    HW1  252   0.897   0.494   0.803
  291SOL    HW2  253   0.970   0.421   0.930
  292SOL     OW  254   0.539   0.064   0.512
  292SOL    HW1  255   0.458   0.065   0.570
  292SOL    HW2  256   0.542   0.147   0.457
  293SOL     OW  257   1.434   1.188   0.041
  293SOL    HW1  258   1.466   1.112   0.098
  293SOL    HW2  259   1.342   1.215   0.071
  294SOL     OW  260   0.297   0.035   0.171
  294SOL    HW1  261   0.346   0.119   0.150
  294SOL    HW2  262   0.359  -0.030   0.216
  295SOL     OW  263   0.935   0.236   0.480
  295SOL    HW1  264   0.887   0.277   0.402
  295SOL    HW2  265   1.034   0.234   0.461
  296SOL     OW  266   1.076   0.683   1.464
  296SOL    HW1  267   0.996   0.622   1.467
  296SOL    HW2  268   1.157   0.630   1.440
  297SOL     OW  269   0.459   1.152   0.741
  297SOL    HW1  270   0.388   1.125   0.806
  297SOL    HW2  271   0.433   1.124   0.648
  298SOL     OW  272   1.271   1.797   0.591
  298SOL    HW1  273   1.315   1.861   0.527
  298SOL    HW2  274   1.221   1.849   0.661
  299SOL     OW  275   1.032   0.549   0.016
  299SOL    HW1  276   0.991   0.631  -0.023
  299SOL    HW2  277   1.096   0.575   0.089
  300SOL     OW  278   0.078   0.556   1.386
  300SOL    HW1  279   0.170   0.555   1.345
  300SOL    HW2  280   0.072   0.630   1.453
  301SOL     OW  281   0.561   0.222   1.147
  301SOL    HW1  282   0.599   0.138   1.184
  301SOL    HW2  283   0.473   0.241   1.191
  302SOL     OW  284   0.866   0.454   0.642
  302SOL    HW1  285   0.834   0.526   0.580
  302SOL    HW2  286   0.890   0.373   0.589
  303SOL     OW  287   1.017   0.039   0.753
  303SOL    HW1  288   0.945   0.044   0.684
  303SOL    HW2  289   0.993  -0.030   0.822
  304SOL     OW  290   1.429   1.173   0.867
  304SOL    HW1  291   1.374   1.089   0.860
  304SOL    HW2  292   1.455   1.202   0.775
  305SOL     OW  293   1.466   0.590   0.992
  305SOL    HW1  294   1.436   0.495   0.999
  305SOL    HW2  295   1.539   0.606   1.058
  306SOL     OW  296   1.857   0.833   0.377
  306SOL    HW1  297   1.899   0.769   0.441
  306SOL    HW2  298   1.819   0.782   0.299
  307SOL     OW  299   1.664   1.280   0.657
  307SOL    HW1  300   1.763   1.288   0.671
  307SOL    HW2  301   1.619   1.364   0.688
  308SOL     OW  302   1.390   0.575   0.078
  308SOL    HW1  303   1.336   0.554   0.159
  308SOL    HW2  304   1.481   0.534   0.087
  309SOL     OW  305   0.527   0.256   0.328
  309SOL    HW1  306   0.554   0.197   0.253
  309SOL    HW2  307   0.527   0.351   0.297
  310SOL     OW  308   1.592   1.629   1.625
  310SOL    HW1  309   1.619   1.663   1.535
  310SOL    HW2  310   1.671   1.591   1.671
  311SOL     OW  311   1.638   1.099   1.079
  311SOL    HW1  312   1.643   1.180   1.138
  311SOL    HW2  313   1.552   1.101   1.028
  312SOL     OW  314   0.915   0.089   1.402
  312SOL    HW1  315   0.940   0.069   1.307
  312SOL    HW2  316   0.987   0.145   1.444
  313SOL     OW  317   0.980   1.116   1.719
  313SOL    HW1  318   0.881   1.122   1.729
  313SOL    HW2  319   1.003   1.036   1.663
  314SOL     OW  320   0.705   1.050   0.368
  314SOL    HW1  321   0.691   1.057   0.467
  314SOL    HW2  322   0.789   0.999   0.350
  315SOL     OW  323   0.410   0.813   1.251
  315SOL    HW1  324   0.496   0.825   1.301
  315SOL    HW2  325   0.368   0.726   1.278
  316SOL     OW  326   1.274   0.386   1.262
  316SOL    HW1  327   1.295   0.460   1.326
  316SOL    HW2  328   1.185   0.403   1.219
  317SOL     OW  329   0.064   1.564   1.331
  317SOL    HW1  330   0.018   1.646   1.297
  317SOL    HW2  331   0.162   1.583   1.340
  318SOL     OW  332   0.367   1.100   0.501
  318SOL    HW1  333   0.360   1.183   0.445
  318SOL    HW2  334   0.371   1.020   0.441
  319SOL     OW  335   0.566   0.537   0.865
  319SOL    HW1  336   0.578   0.603   0.791
  319SOL    HW2  337   0.612   0.571   0.948
  320SOL     OW  338   1.252   1.348   0.388
  320SOL    HW1  339   1.302   1.425   0.428
  320SOL    HW2  340   1.157   1.350   0.420
  321SOL     OW  341   1.582   0.639   0.472
  321SOL    HW1  342   1.551   0.700   0.545
  321SOL    HW2  343   1.632   0.691   0.403
  322SOL     OW  344   0.354   1.510   1.329
  322SOL    HW1  345   0.333   1.466   1.242
  322SOL    HW2  346   0.451   1.536   1.332
  323SOL     OW  347   0.402   0.751   1.598
  323SOL    HW1  348   0.470   0.806   1.551
  323SOL    HW2  349   0.442   0.663   1.625
  324SOL     OW  350   1.013   0.105   1.770
  324SOL    HW1  351   1.019   0.190   1.718
  324SOL    HW2  352   1.045   0.029   1.713
  325SOL     OW  353   0.504   0.050   1.740
  325SOL    HW1  354   0.462  -0.007   1.670
  325SOL    HW2  355   0.438   0.119   1.772
  326SOL     OW  356   0.573   0.870   1.029
  326SOL    HW1  357   0.617   0.959   1.020
  326SOL    HW2  358   0.510   0.870   1.106
  327SOL     OW  359   1.360   0.862   1.045
  327SOL    HW1  360   1.285   0.862   0.979
  327SOL    HW2  361   1.397   0.770   1.054
  328SOL     OW  362   1.209   0.525   0.275
  328SOL    HW1  363   1.222   0.441   0.329
  328SOL    HW2  364   1.180   0.599   0.335
  329SOL     OW  365   0.307   0.213   1.231
  329SOL    HW1  366   0.284   0.250   1.321
  329SOL    HW2  367   0.277   0.118   1.225
  330SOL     OW  368   0.037   1.310   1.282
  330SOL    HW1  369   0.090   1.261   1.350
  330SOL    HW2  370   0.059   1.408   1.287
  331SOL     OW  371   0.732   0.634   1.064
  331SOL    HW1  372   0.791   0.608   0.988
  331SOL    HW2  373   0.704   0.730   1.053
  332SOL     OW  374   0.307   0.063   0.618
  332SOL    HW1  375   0.296   0.157   0.651
  332SOL    HW2  376   0.302   0.000   0.695
  333SOL     OW  377   1.622   0.367   0.374
  333SOL    HW1  378   1.624   0.291   0.438
  333SOL    HW2  379   1.574   0.444   0.414
  334SOL     OW  380   1.023   0.766   0.966
  334SOL    HW1  381   1.038   0.787   1.062
  334SOL    HW2  382   0.993   0.671   0.957
  335SOL     OW  383   0.980   1.573   1.700
  335SOL    HW1  384   0.960   1.617   1.612
  335SOL    HW2  385   1.019   1.482   1.684
  336SOL     OW  386   1.859   1.518   1.605
  336SOL    HW1  387   1.873   1.545   1.510
  336SOL    HW2  388   1.942   1.540   1.658
  337SOL     OW  389   0.350   0.898   1.804
  337SOL    HW1  390   0.426   0.942   1.852
  337SOL    HW2  391   0.385   0.851   1.722
  338SOL     OW  392   1.540   0.274   0.125
  338SOL    HW1  393   1.479   0.199   0.148
  338SOL    HW2  394   1.562   0.326   0.208
  339SOL     OW  395   1.303   0.838   0.042
  339SOL    HW1  396   1.337   0.745   0.057
  339SOL    HW2  397   1.321   0.865  -0.053
  340SOL     OW  398   0.319   0.810   0.949
  340SOL    HW1  399   0.412   0.846   0.954
  340SOL    HW2  400   0.313   0.725   1.001
  341SOL     OW  401   0.339   0.509   1.006
  341SOL    HW1  402   0.287   0.426   0.989
  341SOL    HW2  403   0.416   0.514   0.942
  342SOL     OW  404   1.138   0.380   1.678
  342SOL    HW1  405   1.093   0.443   1.742
  342SOL    HW2  406   1.231   0.411   1.661
  343SOL     OW  407   1.160   0.207   1.477
  343SOL    HW1  408   1.160   0.271   1.554
  343SOL    HW2  409   1.188   0.255   1.394
  344SOL     OW  410   0.008   1.326   0.200
  344SOL    HW1  411  -0.085   1.347   0.169
  344SOL    HW2  412   0.018   1.227   0.213
  345SOL     OW  413   0.088   1.801   0.927
  345SOL    HW1  414   0.046   1.715   0.900
  345SOL    HW2  415   0.182   1.804   0.893
  346SOL     OW  416   0.504   1.568   0.910
  346SOL    HW1  417   0.570   1.642   0.919
  346SOL    HW2  418   0.548   1.489   0.868
  347SOL     OW  419   1.002   0.796   1.238
  347SOL    HW1  420   1.043   0.764   1.324
  347SOL    HW2  421   0.906   0.769   1.235
  348SOL     OW  422   0.040   0.544   1.114
  348SOL    HW1  423   0.125   0.511   1.073
  348SOL    HW2  424   0.053   0.559   1.212
  349SOL     OW  425   0.189   0.520   1.722
  349SOL    HW1  426   0.248   0.480   1.652
  349SOL    HW2  427   0.131   0.591   1.681
  350SOL     OW  428   0.815   0.572   0.325
  350SOL    HW1  429   0.822   0.483   0.279
  350SOL    HW2  430   0.721   0.606   0.317
  351SOL     OW  431   1.657   0.604   1.206
  351SOL    HW1  432   1.619   0.535   1.268
  351SOL    HW2  433   1.739   0.568   1.162
  352SOL     OW  434   0.252   1.564   1.744
  352SOL    HW1  435   0.222   1.621   1.820
  352SOL    HW2  436   0.245   1.467   1.770
  353SOL     OW  437   0.671   0.464   1.269
  353SOL    HW1  438   0.637   0.375   1.239
  353SOL    HW2  439   0.697   0.518   1.189
  354SOL     OW  440   0.930   1.678   1.465
  354SOL    HW1  441   0.906   1.660   1.370
  354SOL    HW2  442   0.960   1.772   1.475
  355SOL     OW  443   0.473   0.500   0.191
  355SOL    HW1  444   0.534   0.580   0.195
  355SOL    HW2  445   0.378   0.531   0.198
  356SOL     OW  446   0.159   1.137   1.466
  356SOL    HW1  447   0.181   1.076   1.542
  356SOL    HW2  448   0.169   1.088   1.380
  357SOL     OW  449   1.302   0.855   0.309
  357SOL    HW1  450   1.216   0.824   0.351
  357SOL    HW2  451   1.298   0.841   0.210
  358SOL     OW  452   1.759   1.747   1.154
  358SOL    HW1  453   1.820   1.777   1.081
  358SOL    HW2  454   1.721   1.658   1.132
  359SOL     OW  455   0.083   1.258   1.022
  359SOL    HW1  456   0.078   1.257   1.122
  359SOL    HW2  457   0.000   1.217   0.984
  360SOL     OW  458   0.688   1.662   1.716
  360SOL    HW1  459   0.632   1.743   1.725
  360SOL    HW2  460   0.740   1.666   1.630
  361SOL     OW  461   0.903   0.086   0.133
  361SOL    HW1  462   0.954   0.087   0.047
  361SOL    HW2  463   0.959   0.044   0.204
  362SOL     OW  464   1.726   0.135   0.523
  362SOL    HW1  465   1.799   0.118   0.456
  362SOL    HW2  466   1.695   0.048   0.561
  363SOL     OW  467   1.388   1.573   0.477
  363SOL    HW1  468   1.455   1.585   0.403
  363SOL    HW2  469   1.348   1.662   0.500
  364SOL     OW  470   0.130   1.794   1.851
  364SOL    HW1  471   0.089   1.720   1.904
  364SOL    HW2  472   0.194   1.845   1.909
  365SOL     OW  473   1.280   0.927   0.672
  365SOL    HW1  474   1.340   0.846   0.674
  365SOL    HW2  475   1.320   0.996   0.612
  366SOL     OW  476   0.830   1.273   1.422
  366SOL    HW1  477   0.825   1.306   1.517
  366SOL    HW2  478   0.744   1.292   1.376
  367SOL     OW  479   0.672   1.616   0.154
  367SOL    HW1  480   0.681   1.626   0.055
  367SOL    HW2  481   0.632   1.527   0.175
  368SOL     OW  482   1.650   1.720   1.394
  368SOL    HW1  483   1.703   1.730   1.310
  368SOL    HW2  484   1.623   1.810   1.428
  369SOL     OW  485   1.841   0.175   0.963
  369SOL    HW1  486   1.880   0.090   0.927
  369SOL    HW2  487   1.743   0.177   0.944
  370SOL     OW  488   0.263   0.326   0.720
  370SOL    HW1  489   0.184   0.377   0.686
  370SOL    HW2  490   0.254   0.311   0.818
  371SOL     OW  491   1.194   1.612   0.031
  371SOL    HW1  492   1.200   1.519   0.068
  371SOL    HW2  493   1.135   1.612  -0.049
  372SOL     OW  494   0.822   1.002   1.372
  372SOL    HW1  495   0.862   1.001   1.280
  372SOL    HW2  496   0.832   1.094   1.412
  373SOL     OW  497   0.916   0.910   0.291
  373SOL    HW1  498   0.979   0.948   0.223
  373SOL    HW2  499   0.956   0.827   0.330
  374SOL     OW  500   1.504   1.607   0.044
  374SOL    HW1  501   1.412   1.644   0.051
  374SOL    HW2  502   1.542   1.627  -0.046
  375SOL     OW  503   0.372   1.288   1.490
  375SOL    HW1  504   0.359   1.381   1.456
  375SOL    HW2  505   0.288   1.236   1.477
  376SOL     OW  506   1.614   1.292   1.289
  376SOL    HW1  507   1.674   1.295   1.369
  376SOL    HW2  508   1.539   1.356   1.302
  377SOL     OW  509   1.039   1.098   0.696
  377SOL    HW1  510   0.969   1.051   0.750
  377SOL    HW2  511   1.098   1.030   0.653
  378SOL     OW  512   1.014   0.236   0.971
  378SOL    HW1  513   1.006   0.200   0.878
  378SOL    HW2  514   1.012   0.160   1.036
  379SOL     OW  515   0.590   1.487   0.491
  379SOL    HW1  516   0.632   1.429   0.421
  379SOL    HW2  517   0.546   1.566   0.447
  380SOL     OW  518   1.709   0.385   1.381
  380SOL    HW1  519   1.782   0.454   1.385
  380SOL    HW2  520   1.737   0.310   1.322
  381SOL     OW  521   0.255   1.348   0.290
  381SOL    HW1  522   0.159   1.349   0.263
  381SOL    HW2  523   0.267   1.401   0.374
  382SOL     OW  524   0.105   1.013   1.726
  382SOL    HW1  525   0.028   0.980   1.780
  382SOL    HW2  526   0.190   0.983   1.768
  383SOL     OW  527   0.672   0.203   1.489
  383SOL    HW1  528   0.762   0.187   1.449
  383SOL    HW2  529   0.680   0.208   1.588
  384SOL     OW  530   0.075   0.345   0.033
  384SOL    HW1  531  -0.017   0.317   0.004
  384SOL    HW2  532   0.106   0.422  -0.023
  385SOL     OW  533   0.072   0.166   0.318
  385SOL    HW1  534   0.055   0.249   0.264
  385SOL    HW2  535   0.162   0.129   0.296
  386SOL     OW  536   1.183   1.335   0.119
  386SOL    HW1  537   1.084   1.324   0.121
  386SOL    HW2  538   1.217   1.350   0.212
  387SOL     OW  539   0.613   0.842   1.431
  387SOL    HW1  540   0.669   0.923   1.414
  387SOL    HW2  541   0.672   0.762   1.434
  388SOL     OW  542   1.493   1.767   0.959
  388SOL    HW1  543   1.526   1.831   0.890
  388SOL    HW2  544   1.559   1.761   1.034
  389SOL     OW  545   0.716   0.565   1.708
  389SOL    HW1  546   0.735   0.630   1.782
  389SOL    HW2  547   0.776   0.485   1.717
  390SOL     OW  548   0.390   1.741   1.560
  390SOL    HW1  549   0.299   1.782   1.558
  390SOL    HW2  550   0.383   1.647   1.592
  391SOL     OW  551   1.674   0.883   1.254
  391SOL    HW1  552   1.647   0.794   1.217
  391SOL    HW2  553   1.675   0.951   1.181
  392SOL     OW  554   1.225   0.325   0.449
  392SOL    HW1  555   1.290   0.251   0.438
  392SOL    HW2  556   1.245   0.375   0.533
  393SOL     OW  557   0.594   0.745   0.652
  393SOL    HW1  558   0.644   0.830   0.633
  393SOL    HW2  559   0.506   0.747   0.604
  394SOL     OW  560   1.777   0.342   1.642
  394SOL    HW1  561   1.760   0.373   1.548
  394SOL    HW2  562   1.693   0.305   1.680
  395SOL     OW  563   1.730   0.934   1.517
  395SOL    HW1  564   1.768   1.025   1.532
  395SOL    HW2  565   1.722   0.917   1.418
  396SOL     OW  566   0.859   1.374   0.016
  396SOL    HW1  567   0.813   1.389   0.104
  396SOL    HW2  568   0.903   1.459  -0.014
  397SOL     OW  569   0.661   1.790   0.953
  397SOL    HW1  570   0.615   1.878   0.940
  397SOL    HW2  571   0.760   1.802   0.946
  398SOL     OW  572   0.859   0.956   0.861
  398SOL    HW1  573   0.913   0.887   0.909
  398SOL    HW2  574   0.827   1.025   0.927
  399SOL     OW  575   1.083   0.984   0.087
  399SOL    HW1  576   1.060   1.037   0.005
  399SOL    HW2  577   1.164   0.928   0.068
  400SOL     OW  578   1.861   1.569   0.851
  400SOL    HW1  579   1.790   1.557   0.781
  400SOL    HW2  580   1.862   1.490   0.911
  401SOL     OW  581   0.221   1.314   1.844
  401SOL    HW1  582   0.156   1.241   1.823
  401SOL    HW2  583   0.225   1.328   1.942
  402SOL     OW  584   0.079   1.240   0.653
  402SOL    HW1  585   0.078   1.193   0.741
  402SOL    HW2  586   0.161   1.212   0.602
  403SOL     OW  587   0.672   1.391   1.624
  403SOL    HW1  588   0.594   1.341   1.662
  403SOL    HW2  589   0.669   1.486   1.655
  404SOL     OW  590   1.824   0.192   1.227
  404SOL    HW1  591   1.820   0.102   1.271
  404SOL    HW2  592   1.827   0.181   1.128
  405SOL     OW  593   0.428   0.424   0.520
  405SOL    HW1  594   0.458   0.352   0.458
  405SOL    HW2  595   0.389   0.384   0.603
  406SOL     OW  596   1.705   1.487   1.104
  406SOL    HW1  597   1.612   1.462   1.077
  406SOL    HW2  598   1.731   1.437   1.186
  407SOL     OW  599   0.317   0.547   1.280
  407SOL    HW1  600   0.355   0.488   1.352
  407SOL    HW2  601   0.357   0.521   1.192
  408SOL     OW  602   0.812   1.586   0.687
  408SOL    HW1  603   0.844   1.596   0.593
  408SOL    HW2  604   0.733   1.524   0.689
  409SOL     OW  605   1.424   0.214   1.112
  409SOL    HW1  606   1.476   0.149   1.167
  409SOL    HW2  607   1.375   0.277   1.173
  410SOL     OW  608   1.001   0.034   1.154
  410SOL    HW1  609   0.938  -0.038   1.123
  410SOL    HW2  610   1.094  -0.002   1.154
  411SOL     OW  611   0.770   1.330   0.301
  411SOL    HW1  612   0.724   1.243   0.318
  411SOL    HW2  613   0.861   1.327   0.342
  412SOL     OW  614   0.618   1.567   1.284
  412SOL    HW1  615   0.613   1.649   1.341
  412SOL    HW2  616   0.707   1.564   1.239
  413SOL     OW  617   1.352   0.052   0.168
  413SOL    HW1  618   1.387   0.011   0.084
  413SOL    HW2  619   1.262   0.014   0.188
  414SOL     OW  620   1.300   0.453   0.691
  414SOL    HW1  621   1.241   0.533   0.695
  414SOL    HW2  622   1.315   0.418   0.784
  415SOL     OW  623   1.593   0.221   0.882
  415SOL    HW1  624   1.509   0.220   0.936
  415SOL    HW2  625   1.595   0.304   0.826
  416SOL     OW  626   0.039   1.077   0.300
  416SOL    HW1  627   0.138   1.066   0.291
  416SOL    HW2  628  -0.001   0.991   0.332
  417SOL     OW  629   0.875   1.646   0.337
  417SOL    HW1  630   0.798   1.611   0.283
  417SOL    HW2  631   0.843   1.717   0.399
  418SOL     OW  632   0.230   0.628   1.975
  418SOL    HW1  633   0.137   0.626   2.012
  418SOL    HW2  634   0.231   0.589   1.883
  419SOL     OW  635   1.755   0.607   2.093
  419SOL    HW1  636   1.743   0.594   1.994
  419SOL    HW2  637   1.725   0.526   2.142
  420SOL     OW  638   0.231   1.713   2.345
  420SOL    HW1  639   0.265   1.790   2.399
  420SOL    HW2  640   0.275   1.713   2.255
  421SOL     OW  641   0.230   1.434   2.400
  421SOL    HW1  642   0.204   1.530   2.400
  421SOL    HW2  643   0.159   1.380   2.445
  422SOL     OW  644   0.606   0.964   1.985
  422SOL    HW1  645   0.613   1.048   1.931
  422SOL    HW2  646   0.652   0.977   2.073
  423SOL     OW  647   0.122   0.643   2.425
  423SOL    HW1  648   0.077   0.555   2.442
  423SOL    HW2  649   0.121   0.697   2.509
  424SOL     OW  650   1.842   1.767   2.221
  424SOL    HW1  651   1.896   1.738   2.301
  424SOL    HW2  652   1.872   1.857   2.192
  425SOL     OW  653   0.027   1.596   1.979
  425SOL    HW1  654   0.008   1.500   2.000
  425SOL    HW2  655  -0.006   1.654   2.054
  426SOL     OW  656   1.689   0.922   2.474
  426SOL    HW1  657   1.784   0.893   2.482
  426SOL    HW2  658   1.681   0.987   2.399
  427SOL     OW  659   1.641   1.108   2.294
  427SOL    HW1  660   1.727   1.110   2.242
  427SOL    HW2  661   1.655   1.155   2.382
  428SOL     OW  662   0.809   0.004   2.364
  428SOL    HW1  663   0.849   0.095   2.355
  428SOL    HW2  664   0.709   0.012   2.370
  429SOL     OW  665   1.525   0.999   2.052
  429SOL    HW1  666   1.462   0.923   2.065
  429SOL    HW2  667   1.573   1.017   2.138
  430SOL     OW  668   1.576   1.662   2.169
  430SOL    HW1  669   1.665   1.708   2.172
  430SOL    HW2  670   1.555   1.638   2.074
  431SOL     OW  671   1.041   0.701   2.291
  431SOL    HW1  672   1.067   0.697   2.387
  431SOL    HW2  673   0.956   0.650   2.277
  432SOL     OW  674   0.076   0.811   2.651
  432SOL    HW1  675   0.175   0.799   2.660
  432SOL    HW2  676   0.052   0.906   2.672
  433SOL     OW  677   0.865   0.348   2.057
  433SOL    HW1  678   0.924   0.411   2.008
  433SOL    HW2  679   0.884   0.254   2.028
  434SOL     OW  680   1.362   1.144   2.407
  434SOL    HW1  681   1.445   1.115   2.359
  434SOL    HW2  682   1.313   1.211   2.351
  435SOL     OW  683   0.321   0.943   2.104
  435SOL    HW1  684   0.403   0.982   2.062
  435SOL    HW2  685   0.294   0.861   2.055
  436SOL     OW  686   1.111   1.776   2.099
  436SOL    HW1  687   1.051   1.714   2.149
  436SOL    HW2  688   1.142   1.732   2.014
  437SOL     OW  689   1.632   1.377   1.943
  437SOL    HW1  690   1.600   1.471   1.933
  437SOL    HW2  691   1.556   1.314   1.931
  438SOL     OW  692   0.464   1.743   2.185
  438SOL    HW1  693   0.497   1.782   2.271
  438SOL    HW2  694   0.540   1.736   2.120
  439SOL     OW  695   1.400   0.107   2.288
  439SOL    HW1  696   1.376   0.070   2.198
  439SOL    HW2  697   1.499   0.123   2.292
  440SOL     OW  698   0.382   0.700   2.342
  440SOL    HW1  699   0.427   0.610   2.339
  440SOL    HW2  700   0.288   0.689   2.375
  441SOL     OW  701   0.614   0.122   1.979
  441SOL    HW1  702   0.712   0.100   1.986
  441SOL    HW2  703   0.583   0.105   1.886
  442SOL     OW  704   0.539   0.064   2.374
  442SOL    HW1  705   0.458   0.065   2.432
  442SOL    HW2  706   0.542   0.147   2.319
  443SOL     OW  707   1.434   1.188   1.903
  443SOL    HW1  708   1.466   1.112   1.960
  443SOL    HW2  709   1.342   1.215   1.933
  444SOL     OW  710   0.297   0.035   2.033
  444SOL    HW1  711   0.346   0.119   2.012
  444SOL    HW2  712   0.359  -0.030   2.078
  445SOL     OW  713   0.935   0.236   2.342
  445SOL    HW1  714   0.887   0.277   2.264
  445SOL    HW2  715   1.034   0.234   2.323
  446SOL     OW  716   0.459   1.152   2.603
  446SOL    HW1  717   0.388   1.125   2.668
  446SOL    HW2  718   0.433   1.124   2.510
  447SOL     OW  719   1.271   1.797   2.453
  447SOL    HW1  720   1.315   1.861   2.389
  447SOL    HW2  721   1.221   1.849   2.523
  448SOL     OW  722   1.032   0.549   1.878
  448SOL    HW1  723   0.991   0.631   1.839
  448SOL    HW2  724   1.096   0.575   1.951
  449SOL     OW  725   0.866   0.454   2.504
  449SOL    HW1  726   0.834   0.526   2.442
  449SOL    HW2  727   0.890   0.373   2.451
  450SOL     OW  728   1.857   0.833   2.239
  450SOL    HW1  729   1.899   0.769   2.303
  450SOL    HW2  730   1.819   0.782   2.161
  451SOL     OW  731   0.488   1.385   2.036
  451SOL    HW1  732   0.401   1.370   2.083
  451SOL    HW2  733   0.471   1.411   1.941
  452SOL     OW  734   1.390   0.575   1.940
  452SOL    HW1  735   1.336   0.554   2.021
  452SOL    HW2  736   1.481   0.534   1.949
  453SOL     OW  737   0.527   0.256   2.190
  453SOL    HW1  738   0.554   0.197   2.115
  453SOL    HW2  739   0.527   0.351   2.159
  454SOL     OW  740   0.705   1.050   2.230
  454SOL    HW1  741   0.691   1.057   2.329
  454SOL    HW2  742   0.789   0.999   2.212
  455SOL     OW  743   0.367   1.100   2.363
  455SOL    HW1  744   0.360   1.183   2.307
  455SOL    HW2  745   0.371   1.020   2.303
  456SOL     OW  746   1.252   1.348   2.250
  456SOL    HW1  747   1.302   1.425   2.290
  456SOL    HW2  748   1.157   1.350   2.282
  457SOL     OW  749   1.582   0.639   2.334
  457SOL    HW1  750   1.551   0.700   2.407
  457SOL    HW2  751   1.632   0.691   2.265
  458SOL     OW  752   1.209   0.525   2.137
  458SOL    HW1  753   1.222   0.441   2.191
  458SOL    HW2  754   1.180   0.599   2.197
  459SOL     OW  755   1.622   0.367   2.236
  459SOL    HW1  756   1.624   0.291   2.300
  459SOL    HW2  757   1.574   0.444   2.276
  460SOL     OW  758   1.540   0.274   1.987
  460SOL    HW1  759   1.479   0.199   2.010
  460SOL    HW2  760   1.562   0.326   2.070
  461SOL     OW  761   1.303   0.838   1.904
  461SOL    HW1  762   1.337   0.745   1.919
  461SOL    HW2  763   1.321   0.865   1.809
  462SOL     OW  764   0.008   1.326   2.062
  462SOL    HW1  765  -0.085   1.347   2.031
  462SOL    HW2  766   0.018   1.227   2.075
  463SOL     OW  767   0.815   0.572   2.187
  463SOL    HW1  768   0.822   0.483   2.141
  463SOL    HW2  769   0.721   0.606   2.179
  464SOL     OW  770   0.473   0.500   2.053
  464SOL    HW1  771   0.534   0.580   2.057
  464SOL    HW2  772   0.378   0.531   2.060
  465SOL     OW  773   1.302   0.855   2.171
  465SOL    HW1  774   1.216   0.824   2.213
  465SOL    HW2  775   1.298   0.841   2.072
  466SOL     OW  776   1.726   0.135   2.385
  466SOL    HW1  777   1.799   0.118   2.318
  466SOL    HW2  778   1.695   0.048   2.423
  467SOL     OW  779   1.388   1.573   2.339
  467SOL    HW1  780   1.455   1.585   2.265
  467SOL    HW2  781   1.348   1.662   2.362
  468SOL     OW  782   0.672   1.616   2.016
  468SOL    HW1  783   0.681   1.626   1.917
  468SOL    HW2  784   0.632   1.527   2.037
  469SOL     OW  785   1.194   1.612   1.893
  469SOL    HW1  786   1.200   1.519   1.930
  469SOL    HW2  787   1.135   1.612   1.813
  470SOL     OW  788   0.916   0.910   2.153
  470SOL    HW1  789   0.979   0.948   2.085
  470SOL    HW2  790   0.956   0.827   2.192
  471SOL     OW  791   1.504   1.607   1.906
  471SOL    HW1  792   1.412   1.644   1.913
  471SOL    HW2  793   1.542   1.627   1.816
  472SOL     OW  794   0.590   1.487   2.353
  472SOL    HW1  795   0.632   1.429   2.283
  472SOL    HW2  796   0.546   1.566   2.309
  473SOL     OW  797   0.255   1.348   2.152
  473SOL    HW1  798   0.159   1.349   2.125
  473SOL    HW2  799   0.267   1.401   2.236
  474SOL     OW  800   0.075   0.345   1.895
  474SOL    HW1  801  -0.017   0.317   1.866
  474SOL    HW2  802   0.106   0.422   1.839
  475SOL     OW  803   0.072   0.166   2.180
  475SOL    HW1  804   0.055   0.249   2.126
  475SOL    HW2  805   0.162   0.129   2.158
  476SOL     OW  806   1.183   1.335   1.981
  476SOL    HW1  807   1.084   1.324   1.983
  476SOL    HW2  808   1.217   1.350   2.074
  477SOL     OW  809   1.225   0.325   2.311
  477SOL    HW1  810   1.290   0.251   2.300
  477SOL    HW2  811   1.245   0.375   2.395
  478SOL     OW  812   0.594   0.745   2.514
  478SOL    HW1  813   0.644   0.830   2.495
  478SOL    HW2  814   0.506   0.747   2.466
  479SOL     OW  815   0.859   1.374   1.878
  479SOL    HW1  816   0.813   1.389   1.966
  479SOL    HW2  817   0.903   1.459   1.848
  480SOL     OW  818   1.083   0.984   1.949
  480SOL    HW1  819   1.060   1.037   1.867
  480SOL    HW2  820   1.164   0.928   1.930
  481SOL     OW  821   0.079   1.240   2.515
  481SOL    HW1  822   0.078   1.193   2.603
  481SOL    HW2  823   0.161   1.212   2.464
  482SOL     OW  824   0.428   0.424   2.382
  482SOL    HW1  825   0.458   0.352   2.320
  482SOL    HW2  826   0.389   0.384   2.465
  483SOL     OW  827   0.770   1.330   2.163
  483SOL    HW1  828   0.724   1.243   2.180
  483SOL    HW2  829   0.861   1.327   2.204
  484SOL     OW  830   1.352   0.052   2.030
  484SOL    HW1  831   1.387   0.011   1.946
  484SOL    HW2  832   1.262   0.014   2.050
  485SOL     OW  833   0.039   1.077   2.162
  485SOL    HW1  834   0.138   1.066   2.153
  485SOL    HW2  835  -0.001   0.991   2.194
  486SOL     OW  836   0.875   1.646   2.199
  486SOL    HW1  837   0.798   1.611   2.145
  486SOL    HW2  838   0.843   1.717   2.261
  487SOL     OW  839   0.225   2.137   0.996
  487SOL    HW1  840   0.260   2.120   1.088
  487SOL    HW2  841   0.137   2.092   0.984
  488SOL     OW  842   0.019   2.230   0.647
  488SOL    HW1  843  -0.063   2.273   0.686
  488SOL    HW2  844  -0.009   2.157   0.584
  489SOL     OW  845   1.755   2.469   0.231
  489SOL    HW1  846   1.743   2.456   0.132
  489SOL    HW2  847   1.725   2.388   0.280
  490SOL     OW  848   0.438   2.254   1.499
  490SOL    HW1  849   0.520   2.198   1.508
  490SOL    HW2  850   0.357   2.196   1.503
  491SOL     OW  851   1.603   2.309   0.737
  491SOL    HW1  852   1.529   2.355   0.687
  491SOL    HW2  853   1.654   2.377   0.790
  492SOL     OW  854   1.594   1.976   1.480
  492SOL    HW1  855   1.576   2.043   1.408
  492SOL    HW2  856   1.591   2.022   1.569
  493SOL     OW  857   0.122   2.505   0.563
  493SOL    HW1  858   0.077   2.417   0.580
  493SOL    HW2  859   0.121   2.559   0.647
  494SOL     OW  860   0.809   1.866   0.502
  494SOL    HW1  861   0.849   1.957   0.493
  494SOL    HW2  862   0.709   1.874   0.508
  495SOL     OW  863   0.317   2.113   1.801
  495SOL    HW1  864   0.388   2.184   1.807
  495SOL    HW2  865   0.229   2.152   1.829
  496SOL     OW  866   1.281   2.207   0.944
  496SOL    HW1  867   1.195   2.157   0.931
  496SOL    HW2  868   1.343   2.153   1.000
  497SOL     OW  869   0.807   2.467   1.465
  497SOL    HW1  870   0.760   2.464   1.554
  497SOL    HW2  871   0.756   2.412   1.399
  498SOL     OW  872   1.394   2.331   1.674
  498SOL    HW1  873   1.374   2.374   1.762
  498SOL    HW2  874   1.472   2.269   1.683
  499SOL     OW  875   0.991   2.272   1.242
  499SOL    HW1  876   0.914   2.306   1.296
  499SOL    HW2  877   0.957   2.221   1.163
  500SOL     OW  878   1.041   2.563   0.429
  500SOL    HW1  879   1.067   2.559   0.525
  500SOL    HW2  880   0.956   2.512   0.415
  501SOL     OW  881   0.076   2.673   0.789
  501SOL    HW1  882   0.175   2.661   0.798
  501SOL    HW2  883   0.052   2.768   0.810
  502SOL     OW  884   0.865   2.210   0.195
  502SOL    HW1  885   0.924   2.273   0.146
  502SOL    HW2  886   0.884   2.116   0.166
  503SOL     OW  887   1.719   2.447   1.831
  503SOL    HW1  888   1.693   2.536   1.795
  503SOL    HW2  889   1.717   2.379   1.758
  504SOL     OW  890   0.550   2.058   0.885
  504SOL    HW1  891   0.545   2.053   0.985
  504SOL    HW2  892   0.552   2.154   0.856
  505SOL     OW  893   1.458   2.597   0.728
  505SOL    HW1  894   1.453   2.532   0.803
  505SOL    HW2  895   1.538   2.656   0.741
  506SOL     OW  896   0.202   2.147   1.498
  506SOL    HW1  897   0.122   2.207   1.485
  506SOL    HW2  898   0.192   2.098   1.584
  507SOL     OW  899   1.547   2.084   1.729
  507SOL    HW1  900   1.542   2.121   1.821
  507SOL    HW2  901   1.475   2.015   1.717
  508SOL     OW  902   0.614   1.984   0.117
  508SOL    HW1  903   0.712   1.962   0.124
  508SOL    HW2  904   0.583   1.967   0.024
  509SOL     OW  905   0.781   2.126   1.749
  509SOL    HW1  906   0.848   2.065   1.792
  509SOL    HW2  907   0.708   2.145   1.814
  510SOL     OW  908   1.351   2.452   1.433
  510SOL    HW1  909   1.379   2.409   1.518
  510SOL    HW2  910   1.376   2.548   1.434
  511SOL     OW  911   0.922   2.365   0.899
  511SOL    HW1  912   0.897   2.356   0.803
  511SOL    HW2  913   0.970   2.283   0.930
  512SOL     OW  914   0.539   1.926   0.512
  512SOL    HW1  915   0.458   1.927   0.570
  512SOL    HW2  916   0.542   2.009   0.457
  513SOL     OW  917   0.297   1.897   0.171
  513SOL    HW1  918   0.346   1.981   0.150
  513SOL    HW2  919   0.359   1.832   0.216
  514SOL     OW  920   0.935   2.098   0.480
  514SOL    HW1  921   0.887   2.139   0.402
  514SOL    HW2  922   1.034   2.096   0.461
  515SOL     OW  923   1.032   2.411   0.016
  515SOL    HW1  924   0.991   2.493  -0.023
  515SOL    HW2  925   1.096   2.437   0.089
  516SOL     OW  926   0.078   2.418   1.386
  516SOL    HW1  927   0.170   2.417   1.345
  516SOL    HW2  928   0.072   2.492   1.453
  517SOL     OW  929   0.561   2.084   1.147
  517SOL    HW1  930   0.599   2.000   1.184
  517SOL    HW2  931   0.473   2.103   1.191
  518SOL     OW  932   0.866   2.316   0.642
  518SOL    HW1  933   0.834   2.388   0.580
  518SOL    HW2  934   0.890   2.235   0.589
  519SOL     OW  935   1.017   1.901   0.753
  519SOL    HW1  936   0.945   1.906   0.684
  519SOL    HW2  937   0.993   1.832   0.822
  520SOL     OW  938   1.466   2.452   0.992
  520SOL    HW1  939   1.436   2.357   0.999
  520SOL    HW2  940   1.539   2.468   1.058
  521SOL     OW  941   0.527   2.118   0.328
  521SOL    HW1  942   0.554   2.059   0.253
  521SOL    HW2  943   0.527   2.213   0.297
  522SOL     OW  944   0.915   1.951   1.402
  522SOL    HW1  945   0.940   1.931   1.307
  522SOL    HW2  946   0.987   2.007   1.444
  523SOL     OW  947   1.274   2.248   1.262
  523SOL    HW1  948   1.295   2.322   1.326
  523SOL    HW2  949   1.185   2.265   1.219
  524SOL     OW  950   0.566   2.399   0.865
  524SOL    HW1  951   0.578   2.465   0.791
  524SOL    HW2  952   0.612   2.433   0.948
  525SOL     OW  953   1.582   2.501   0.472
  525SOL    HW1  954   1.551   2.562   0.545
  525SOL    HW2  955   1.632   2.553   0.403
  526SOL     OW  956   1.013   1.967   1.770
  526SOL    HW1  957   1.019   2.052   1.718
  526SOL    HW2  958   1.045   1.891   1.713
  527SOL     OW  959   0.504   1.912   1.740
  527SOL    HW1  960   0.462   1.855   1.670
  527SOL    HW2  961   0.438   1.981   1.772
  528SOL     OW  962   1.209   2.387   0.275
  528SOL    HW1  963   1.222   2.303   0.329
  528SOL    HW2  964   1.180   2.461   0.335
  529SOL     OW  965   0.307   2.075   1.231
  529SOL    HW1  966   0.284   2.112   1.321
  529SOL    HW2  967   0.277   1.980   1.225
  530SOL     OW  968   0.732   2.496   1.064
  530SOL    HW1  969   0.791   2.470   0.988
  530SOL    HW2  970   0.704   2.592   1.053
  531SOL     OW  971   0.307   1.925   0.618
  531SOL    HW1  972   0.296   2.019   0.651
  531SOL    HW2  973   0.302   1.862   0.695
  532SOL     OW  974   1.622   2.229   0.374
  532SOL    HW1  975   1.624   2.153   0.438
  532SOL    HW2  976   1.574   2.306   0.414
  533SOL     OW  977   1.540   2.136   0.125
  533SOL    HW1  978   1.479   2.061   0.148
  533SOL    HW2  979   1.562   2.188   0.208
  534SOL     OW  980   0.339   2.371   1.006
  534SOL    HW1  981   0.287   2.288   0.989
  534SOL    HW2  982   0.416   2.376   0.942
  535SOL     OW  983   1.138   2.242   1.678
  535SOL    HW1  984   1.093   2.305   1.742
  535SOL    HW2  985   1.231   2.273   1.661
  536SOL     OW  986   1.160   2.069   1.477
  536SOL    HW1  987   1.160   2.133   1.554
  536SOL    HW2  988   1.188   2.117   1.394
  537SOL     OW  989   0.040   2.406   1.114
  537SOL    HW1  990   0.125   2.373   1.073
  537SOL    HW2  991   0.053   2.421   1.212
  538SOL     OW  992   0.189   2.382   1.722
  538SOL    HW1  993   0.248   2.342   1.652
  538SOL    HW2  994   0.131   2.453   1.681
  539SOL     OW  995   0.815   2.434   0.325
  539SOL    HW1  996   0.822   2.345   0.279
  539SOL    HW2  997   0.721   2.468   0.317
  540SOL     OW  998   1.657   2.466   1.206
  540SOL    HW1  999   1.619   2.397   1.268
  540SOL    HW2 1000   1.739   2.430   1.162
  541SOL     OW 1001   0.671   2.326   1.269
  541SOL    HW1 1002   0.637   2.237   1.239
  541SOL    HW2 1003   0.697   2.380   1.189
  542SOL     OW 1004   0.903   1.948   0.133
  542SOL    HW1 1005   0.954   1.949   0.047
  542SOL    HW2 1006   0.959   1.906   0.204
  543SOL     OW 1007   1.726   1.997   0.523
  543SOL    HW1 1008   1.799   1.980   0.456
  543SOL    HW2 1009   1.695   1.910   0.561
  544SOL     OW 1010   1.841   2.037   0.963
  544SOL    HW1 1011   1.880   1.952   0.927
  544SOL    HW2 1012   1.743   2.039   0.944
  545SOL     OW 1013   0.263   2.188   0.720
  545SOL    HW1 1014   0.184   2.239   0.686
  545SOL    HW2 1015   0.254   2.173   0.818
  546SOL     OW 1016   1.014   2.098   0.971
  546SOL    HW1 1017   1.006   2.062   0.878
  546SOL    HW2 1018   1.012   2.022   1.036
  547SOL     OW 1019   1.709   2.247   1.381
  547SOL    HW1 1020   1.782   2.316   1.385
  547SOL    HW2 1021   1.737   2.172   1.322
  548SOL     OW 1022   0.672   2.065   1.489
  548SOL    HW1 1023   0.762   2.049   1.449
  548SOL    HW2 1024   0.680   2.070   1.588
  549SOL     OW 1025   0.075   2.207   0.033
  549SOL    HW1 1026  -0.017   2.179   0.004
  549SOL    HW2 1027   0.106   2.284  -0.023
  550SOL     OW 1028   0.072   2.028   0.318
  550SOL    HW1 1029   0.055   2.111   0.264
  550SOL    HW2 1030   0.162   1.991   0.296
  551SOL     OW 1031   0.716   2.427   1.708
  551SOL    HW1 1032   0.735   2.492   1.782
  551SOL    HW2 1033   0.776   2.347   1.717
  552SOL     OW 1034   1.225   2.187   0.449
  552SOL    HW1 1035   1.290   2.113   0.438
  552SOL    HW2 1036   1.245   2.237   0.533
  553SOL     OW 1037   1.777   2.204   1.642
  553SOL    HW1 1038   1.760   2.235   1.548
  553SOL    HW2 1039   1.693   2.167   1.680
  554SOL     OW 1040   1.824   2.054   1.227
  554SOL    HW1 1041   1.820   1.964   1.271
  554SOL    HW2 1042   1.827   2.043   1.128
  555SOL     OW 1043   0.428   2.286   0.520
  555SOL    HW1 1044   0.458   2.214   0.458
  555SOL    HW2 1045   0.389   2.246   0.603
  556SOL     OW 1046   0.317   2.409   1.280
  556SOL    HW1 1047   0.355   2.350   1.352
  556SOL    HW2 1048   0.357   2.383   1.192
  557SOL     OW 1049   1.424   2.076   1.112
  557SOL    HW1 1050   1.476   2.011   1.167
  557SOL    HW2 1051   1.375   2.139   1.173
  558SOL     OW 1052   1.001   1.896   1.154
  558SOL    HW1 1053   0.938   1.824   1.123
  558SOL    HW2 1054   1.094   1.860   1.154
  559SOL     OW 1055   1.352   1.914   0.168
  559SOL    HW1 1056   1.387   1.873   0.084
  559SOL    HW2 1057   1.262   1.876   0.188
  560SOL     OW 1058   1.300   2.315   0.691
  560SOL    HW1 1059   1.241   2.395   0.695
  560SOL    HW2 1060   1.315   2.280   0.784
  561SOL     OW 1061   1.593   2.083   0.882
  561SOL    HW1 1062   1.509   2.082   0.936
  561SOL    HW2 1063   1.595   2.166   0.826
  562SOL     OW 1064   1.755   2.469   2.093
  562SOL    HW1 1065   1.743   2.456   1.994
  562SOL    HW2 1066   1.725   2.388   2.142
  563SOL     OW 1067   0.122   2.505   2.425
  563SOL    HW1 1068   0.077   2.417   2.442
  563SOL    HW2 1069   0.121   2.559   2.509
  564SOL     OW 1070   0.809   1.866   2.364
  564SOL    HW1 1071   0.849   1.957   2.355
  564SOL    HW2 1072   0.709   1.874   2.370
  565SOL     OW 1073   1.041   2.563   2.291
  565SOL    HW1 1074   1.067   2.559   2.387
  565SOL    HW2 1075   0.956   2.512   2.277
  566SOL     OW 1076   0.865   2.210   2.057
  566SOL    HW1 1077   0.924   2.273   2.008
  566SOL    HW2 1078   0.884   2.116   2.028
  567SOL     OW 1079   1.400   1.969   2.288
  567SOL    HW1 1080   1.376   1.932   2.198
  567SOL    HW2 1081   1.499   1.985   2.292
  568SOL     OW 1082   0.614   1.984   1.979
  568SOL    HW1 1083   0.712   1.962   1.986
  568SOL    HW2 1084   0.583   1.967   1.886
  569SOL     OW 1085   0.539   1.926   2.374
  569SOL    HW1 1086   0.458   1.927   2.432
  569SOL    HW2 1087   0.542   2.009   2.319
  570SOL     OW 1088   0.297   1.897   2.033
  570SOL    HW1 1089   0.346   1.981   2.012
  570SOL    HW2 1090   0.359   1.832   2.078
  571SOL     OW 1091   0.935   2.098   2.342
  571SOL    HW1 1092   0.887   2.139   2.264
  571SOL    HW2 1093   1.034   2.096   2.323
  572SOL     OW 1094   0.866   2.316   2.504
  572SOL    HW1 1095   0.834   2.388   2.442
  572SOL    HW2 1096   0.890   2.235   2.451
  573SOL     OW 1097   0.527   2.118   2.190
  573SOL    HW1 1098   0.554   2.059   2.115
  573SOL    HW2 1099   0.527   2.213   2.159
  574SOL     OW 1100   1.582   2.501   2.334
  574SOL    HW1 1101   1.551   2.562   2.407
  574SOL    HW2 1102   1.632   2.553   2.265
  575SOL     OW 1103   1.209   2.387   2.137
  575SOL    HW1 1104   1.222   2.303   2.191
  575SOL    HW2 1105   1.180   2.461   2.197
  576SOL     OW 1106   1.622   2.229   2.236
  576SOL    HW1 1107   1.624   2.153   2.300
  576SOL    HW2 1108   1.574   2.306   2.276
  577SOL     OW 1109   1.540   2.136   1.987
  577SOL    HW1 1110   1.479   2.061   2.010
  577SOL    HW2 1111   1.562   2.188   2.070
  578SOL     OW 1112   0.815   2.434   2.187
  578SOL    HW1 1113   0.822   2.345   2.141
  578SOL    HW2 1114   0.721   2.468   2.179
  579SOL     OW 1115   1.726   1.997   2.385
  579SOL    HW1 1116   1.799   1.980   2.318
  579SOL    HW2 1117   1.695   1.910   2.423
  580SOL     OW 1118   0.075   2.207   1.895
  580SOL    HW1 1119  -0.017   2.179   1.866
  580SOL    HW2 1120   0.106   2.284   1.839
  581SOL     OW 1121   0.072   2.028   2.180
  581SOL    HW1 1122   0.055   2.111   2.126
  581SOL    HW2 1123   0.162   1.991   2.158
  582SOL     OW 1124   1.225   2.187   2.311
  582SOL    HW1 1125   1.290   2.113   2.300
  582SOL    HW2 1126   1.245   2.237   2.395
  583SOL     OW 1127   0.428   2.286   2.382
  583SOL    HW1 1128   0.458   2.214   2.320
  583SOL    HW2 1129   0.389   2.246   2.465
  584SOL     OW 1130   1.352   1.914   2.030
  584SOL    HW1 1131   1.387   1.873   1.946
  584SOL    HW2 1132   1.262   1.876   2.050
  585SOL     OW 1133   1.300   2.315   2.553
  585SOL    HW1 1134   1.241   2.395   2.557
  585SOL    HW2 1135   1.315   2.280   2.646
  586SOL     OW 1136   2.092   0.628   0.113
  586SOL    HW1 1137   1.999   0.626   0.150
  586SOL    HW2 1138   2.093   0.589   0.021
  587SOL     OW 1139   2.087   0.275   0.996
  587SOL    HW1 1140   2.122   0.258   1.088
  587SOL    HW2 1141   1.999   0.230   0.984
  588SOL     OW 1142   1.881   0.368   0.647
  588SOL    HW1 1143   1.799   0.411   0.686
  588SOL    HW2 1144   1.853   0.295   0.584
  589SOL     OW 1145   2.712   0.798   1.823
  589SOL    HW1 1146   2.708   0.874   1.888
  589SOL    HW2 1147   2.734   0.834   1.732
  590SOL     OW 1148   2.197   1.435   1.061
  590SOL    HW1 1149   2.119   1.404   1.008
  590SOL    HW2 1150   2.255   1.493   1.004
  591SOL     OW 1151   2.300   0.392   1.499
  591SOL    HW1 1152   2.382   0.336   1.508
  591SOL    HW2 1153   2.219   0.334   1.503
  592SOL     OW 1154   2.093   1.713   0.483
  592SOL    HW1 1155   2.127   1.790   0.537
  592SOL    HW2 1156   2.137   1.713   0.393
  593SOL     OW 1157   2.092   1.434   0.538
  593SOL    HW1 1158   2.066   1.530   0.538
  593SOL    HW2 1159   2.021   1.380   0.583
  594SOL     OW 1160   2.102   1.091   0.886
  594SOL    HW1 1161   2.116   1.007   0.938
  594SOL    HW2 1162   2.047   1.155   0.941
  595SOL     OW 1163   1.984   0.643   0.563
  595SOL    HW1 1164   1.939   0.555   0.580
  595SOL    HW2 1165   1.983   0.697   0.647
  596SOL     OW 1166   1.889   1.596   0.117
  596SOL    HW1 1167   1.870   1.500   0.138
  596SOL    HW2 1168   1.856   1.654   0.192
  597SOL     OW 1169   1.975   0.737   1.597
  597SOL    HW1 1170   2.063   0.724   1.642
  597SOL    HW2 1171   1.962   0.834   1.575
  598SOL     OW 1172   2.475   1.365   0.726
  598SOL    HW1 1173   2.426   1.278   0.735
  598SOL    HW2 1174   2.452   1.408   0.639
  599SOL     OW 1175   2.059   0.976   1.264
  599SOL    HW1 1176   2.148   0.931   1.250
  599SOL    HW2 1177   1.986   0.911   1.245
  600SOL     OW 1178   2.179   0.251   1.801
  600SOL    HW1 1179   2.250   0.322   1.807
  600SOL    HW2 1180   2.091   0.290   1.829
  601SOL     OW 1181   1.938   0.811   0.789
  601SOL    HW1 1182   2.037   0.799   0.798
  601SOL    HW2 1183   1.914   0.906   0.810
  602SOL     OW 1184   1.992   1.821   1.571
  602SOL    HW1 1185   1.982   1.806   1.670
  602SOL    HW2 1186   1.906   1.857   1.535
  603SOL     OW 1187   2.727   0.348   0.195
  603SOL    HW1 1188   2.786   0.411   0.146
  603SOL    HW2 1189   2.746   0.254   0.166
  604SOL     OW 1190   2.412   0.196   0.885
  604SOL    HW1 1191   2.407   0.191   0.985
  604SOL    HW2 1192   2.414   0.292   0.856
  605SOL     OW 1193   2.213   1.801   0.853
  605SOL    HW1 1194   2.263   1.715   0.859
  605SOL    HW2 1195   2.278   1.878   0.850
  606SOL     OW 1196   2.183   0.943   0.242
  606SOL    HW1 1197   2.265   0.982   0.200
  606SOL    HW2 1198   2.156   0.861   0.193
  607SOL     OW 1199   2.323   1.266   1.727
  607SOL    HW1 1200   2.273   1.267   1.641
  607SOL    HW2 1201   2.260   1.248   1.803
  608SOL     OW 1202   2.064   0.285   1.498
  608SOL    HW1 1203   1.984   0.345   1.485
  608SOL    HW2 1204   2.054   0.236   1.584
  609SOL     OW 1205   2.326   1.743   0.323
  609SOL    HW1 1206   2.359   1.782   0.409
  609SOL    HW2 1207   2.402   1.736   0.258
  610SOL     OW 1208   2.111   1.785   1.241
  610SOL    HW1 1209   2.168   1.720   1.291
  610SOL    HW2 1210   2.095   1.752   1.148
  611SOL     OW 1211   2.244   0.700   0.480
  611SOL    HW1 1212   2.289   0.610   0.477
  611SOL    HW2 1213   2.150   0.689   0.513
  612SOL     OW 1214   2.476   0.122   0.117
  612SOL    HW1 1215   2.574   0.100   0.124
  612SOL    HW2 1216   2.445   0.105   0.024
  613SOL     OW 1217   2.401   0.064   0.512
  613SOL    HW1 1218   2.320   0.065   0.570
  613SOL    HW2 1219   2.404   0.147   0.457
  614SOL     OW 1220   2.159   0.035   0.171
  614SOL    HW1 1221   2.208   0.119   0.150
  614SOL    HW2 1222   2.221  -0.030   0.216
  615SOL     OW 1223   2.797   0.236   0.480
  615SOL    HW1 1224   2.749   0.277   0.402
  615SOL    HW2 1225   2.896   0.234   0.461
  616SOL     OW 1226   2.321   1.152   0.741
  616SOL    HW1 1227   2.250   1.125   0.806
  616SOL    HW2 1228   2.295   1.124   0.648
  617SOL     OW 1229   1.940   0.556   1.386
  617SOL    HW1 1230   2.032   0.555   1.345
  617SOL    HW2 1231   1.934   0.630   1.453
  618SOL     OW 1232   2.423   0.222   1.147
  618SOL    HW1 1233   2.461   0.138   1.184
  618SOL    HW2 1234   2.335   0.241   1.191
  619SOL     OW 1235   2.389   0.256   0.328
  619SOL    HW1 1236   2.416   0.197   0.253
  619SOL    HW2 1237   2.389   0.351   0.297
  620SOL     OW 1238   2.842   1.116   1.719
  620SOL    HW1 1239   2.743   1.122   1.729
  620SOL    HW2 1240   2.865   1.036   1.663
  621SOL     OW 1241   2.272   0.813   1.251
  621SOL    HW1 1242   2.358   0.825   1.301
  621SOL    HW2 1243   2.230   0.726   1.278
  622SOL     OW 1244   1.926   1.564   1.331
  622SOL    HW1 1245   1.880   1.646   1.297
  622SOL    HW2 1246   2.024   1.583   1.340
  623SOL     OW 1247   2.229   1.100   0.501
  623SOL    HW1 1248   2.222   1.183   0.445
  623SOL    HW2 1249   2.233   1.020   0.441
  624SOL     OW 1250   2.428   0.537   0.865
  624SOL    HW1 1251   2.440   0.603   0.791
  624SOL    HW2 1252   2.474   0.571   0.948
  625SOL     OW 1253   2.216   1.510   1.329
  625SOL    HW1 1254   2.195   1.466   1.242
  625SOL    HW2 1255   2.313   1.536   1.332
  626SOL     OW 1256   2.264   0.751   1.598
  626SOL    HW1 1257   2.332   0.806   1.551
  626SOL    HW2 1258   2.304   0.663   1.625
  627SOL     OW 1259   2.366   0.050   1.740
  627SOL    HW1 1260   2.324  -0.007   1.670
  627SOL    HW2 1261   2.300   0.119   1.772
  628SOL     OW 1262   2.435   0.870   1.029
  628SOL    HW1 1263   2.479   0.959   1.020
  628SOL    HW2 1264   2.372   0.870   1.106
  629SOL     OW 1265   2.169   0.213   1.231
  629SOL    HW1 1266   2.146   0.250   1.321
  629SOL    HW2 1267   2.139   0.118   1.225
  630SOL     OW 1268   1.899   1.310   1.282
  630SOL    HW1 1269   1.952   1.261   1.350
  630SOL    HW2 1270   1.921   1.408   1.287
  631SOL     OW 1271   2.169   0.063   0.618
  631SOL    HW1 1272   2.158   0.157   0.651
  631SOL    HW2 1273   2.164   0.000   0.695
  632SOL     OW 1274   2.212   0.898   1.804
  632SOL    HW1 1275   2.288   0.942   1.852
  632SOL    HW2 1276   2.247   0.851   1.722
  633SOL     OW 1277   2.181   0.810   0.949
  633SOL    HW1 1278   2.274   0.846   0.954
  633SOL    HW2 1279   2.175   0.725   1.001
  634SOL     OW 1280   2.201   0.509   1.006
  634SOL    HW1 1281   2.149   0.426   0.989
  634SOL    HW2 1282   2.278   0.514   0.942
  635SOL     OW 1283   1.870   1.326   0.200
  635SOL    HW1 1284   1.777   1.347   0.169
  635SOL    HW2 1285   1.880   1.227   0.213
  636SOL     OW 1286   1.950   1.801   0.927
  636SOL    HW1 1287   1.908   1.715   0.900
  636SOL    HW2 1288   2.044   1.804   0.893
  637SOL     OW 1289   2.366   1.568   0.910
  637SOL    HW1 1290   2.432   1.642   0.919
  637SOL    HW2 1291   2.410   1.489   0.868
  638SOL     OW 1292   1.902   0.544   1.114
  638SOL    HW1 1293   1.987   0.511   1.073
  638SOL    HW2 1294   1.915   0.559   1.212
  639SOL     OW 1295   2.051   0.520   1.722
  639SOL    HW1 1296   2.110   0.480   1.652
  639SOL    HW2 1297   1.993   0.591   1.681
  640SOL     OW 1298   2.677   0.572   0.325
  640SOL    HW1 1299   2.684   0.483   0.279
  640SOL    HW2 1300   2.583   0.606   0.317
  641SOL     OW 1301   2.114   1.564   1.744
  641SOL    HW1 1302   2.084   1.621   1.820
  641SOL    HW2 1303   2.107   1.467   1.770
  642SOL     OW 1304   2.335   0.500   0.191
  642SOL    HW1 1305   2.396   0.580   0.195
  642SOL    HW2 1306   2.240   0.531   0.198
  643SOL     OW 1307   2.021   1.137   1.466
  643SOL    HW1 1308   2.043   1.076   1.542
  643SOL    HW2 1309   2.031   1.088   1.380
  644SOL     OW 1310   1.945   1.258   1.022
  644SOL    HW1 1311   1.940   1.257   1.122
  644SOL    HW2 1312   1.862   1.217   0.984
  645SOL     OW 1313   2.550   1.662   1.716
  645SOL    HW1 1314   2.494   1.743   1.725
  645SOL    HW2 1315   2.602   1.666   1.630
  646SOL     OW 1316   1.992   1.794   1.851
  646SOL    HW1 1317   1.951   1.720   1.904
  646SOL    HW2 1318   2.056   1.845   1.909
  647SOL     OW 1319   2.125   0.326   0.720
  647SOL    HW1 1320   2.046   0.377   0.686
  647SOL    HW2 1321   2.116   0.311   0.818
  648SOL     OW 1322   2.234   1.288   1.490
  648SOL    HW1 1323   2.221   1.381   1.456
  648SOL    HW2 1324   2.150   1.236   1.477
  649SOL     OW 1325   2.452   1.487   0.491
  649SOL    HW1 1326   2.494   1.429   0.421
  649SOL    HW2 1327   2.408   1.566   0.447
  650SOL     OW 1328   2.117   1.348   0.290
  650SOL    HW1 1329   2.021   1.349   0.263
  650SOL    HW2 1330   2.129   1.401   0.374
  651SOL     OW 1331   1.967   1.013   1.726
  651SOL    HW1 1332   1.890   0.980   1.780
  651SOL    HW2 1333   2.052   0.983   1.768
  652SOL     OW 1334   1.937   0.345   0.033
  652SOL    HW1 1335   1.845   0.317   0.004
  652SOL    HW2 1336   1.968   0.422  -0.023
  653SOL     OW 1337   1.934   0.166   0.318
  653SOL    HW1 1338   1.917   0.249   0.264
  653SOL    HW2 1339   2.024   0.129   0.296
  654SOL     OW 1340   2.475   0.842   1.431
  654SOL    HW1 1341   2.531   0.923   1.414
  654SOL    HW2 1342   2.534   0.762   1.434
  655SOL     OW 1343   2.252   1.741   1.560
  655SOL    HW1 1344   2.161   1.782   1.558
  655SOL    HW2 1345   2.245   1.647   1.592
  656SOL     OW 1346   2.456   0.745   0.652
  656SOL    HW1 1347   2.506   0.830   0.633
  656SOL    HW2 1348   2.368   0.747   0.604
  657SOL     OW 1349   2.083   1.314   1.844
  657SOL    HW1 1350   2.018   1.241   1.823
  657SOL    HW2 1351   2.087   1.328   1.942
  658SOL     OW 1352   1.941   1.240   0.653
  658SOL    HW1 1353   1.940   1.193   0.741
  658SOL    HW2 1354   2.023   1.212   0.602
  659SOL     OW 1355   2.534   1.391   1.624
  659SOL    HW1 1356   2.456   1.341   1.662
  659SOL    HW2 1357   2.531   1.486   1.655
  660SOL     OW 1358   2.290   0.424   0.520
  660SOL    HW1 1359   2.320   0.352   0.458
  660SOL    HW2 1360   2.251   0.384   0.603
  661SOL     OW 1361   2.179   0.547   1.280
  661SOL    HW1 1362   2.217   0.488   1.352
  661SOL    HW2 1363   2.219   0.521   1.192
  662SOL     OW 1364   1.901   1.077   0.300
  662SOL    HW1 1365   2.000   1.066   0.291
  662SOL    HW2 1366   1.861   0.991   0.332
  663SOL     OW 1367   2.092   0.628   1.975
  663SOL    HW1 1368   1.999   0.626   2.012
  663SOL    HW2 1369   2.093   0.589   1.883
  664SOL     OW 1370   2.093   1.713   2.345
  664SOL    HW1 1371   2.127   1.790   2.399
  664SOL    HW2 1372   2.137   1.713   2.255
  665SOL     OW 1373   2.092   1.434   2.400
  665SOL    HW1 1374   2.066   1.530   2.400
  665SOL    HW2 1375   2.021   1.380   2.445
  666SOL     OW 1376   1.984   0.643   2.425
  666SOL    HW1 1377   1.939   0.555   2.442
  666SOL    HW2 1378   1.983   0.697   2.509
  667SOL     OW 1379   1.889   1.596   1.979
  667SOL    HW1 1380   1.870   1.500   2.000
  667SOL    HW2 1381   1.856   1.654   2.054
  668SOL     OW 1382   2.460   0.729   2.132
  668SOL    HW1 1383   2.484   0.798   2.064
  668SOL    HW2 1384   2.382   0.762   2.186
  669SOL     OW 1385   1.938   0.811   2.651
  669SOL    HW1 1386   2.037   0.799   2.660
  669SOL    HW2 1387   1.914   0.906   2.672
  670SOL     OW 1388   2.727   0.348   2.057
  670SOL    HW1 1389   2.786   0.411   2.008
  670SOL    HW2 1390   2.746   0.254   2.028
  671SOL     OW 1391   2.183   0.943   2.104
  671SOL    HW1 1392   2.265   0.982   2.062
  671SOL    HW2 1393   2.156   0.861   2.055
  672SOL     OW 1394   2.326   1.743   2.185
  672SOL    HW1 1395   2.359   1.782   2.271
  672SOL    HW2 1396   2.402   1.736   2.120
  673SOL     OW 1397   2.244   0.700   2.342
  673SOL    HW1 1398   2.289   0.610   2.339
  673SOL    HW2 1399   2.150   0.689   2.375
  674SOL     OW 1400   2.476   0.122   1.979
  674SOL    HW1 1401   2.574   0.100   1.986
  674SOL    HW2 1402   2.445   0.105   1.886
  675SOL     OW 1403   2.401   0.064   2.374
  675SOL    HW1 1404   2.320   0.065   2.432
  675SOL    HW2 1405   2.404   0.147   2.319
  676SOL     OW 1406   2.159   0.035   2.033
  676SOL    HW1 1407   2.208   0.119   2.012
  676SOL    HW2 1408   2.221  -0.030   2.078
  677SOL     OW 1409   2.797   0.236   2.342
  677SOL    HW1 1410   2.749   0.277   2.264
  677SOL    HW2 1411   2.896   0.234   2.323
  678SOL     OW 1412   2.321   1.152   2.603
  678SOL    HW1 1413   2.250   1.125   2.668
  678SOL    HW2 1414   2.295   1.124   2.510
  679SOL     OW 1415   2.389   0.256   2.190
  679SOL    HW1 1416   2.416   0.197   2.115
  679SOL    HW2 1417   2.389   0.351   2.159
  680SOL     OW 1418   2.229   1.100   2.363
  680SOL    HW1 1419   2.222   1.183   2.307
  680SOL    HW2 1420   2.233   1.020   2.303
  681SOL     OW 1421   1.870   1.326   2.062
  681SOL    HW1 1422   1.777   1.347   2.031
  681SOL    HW2 1423   1.880   1.227   2.075
  682SOL     OW 1424   2.677   0.572   2.187
  682SOL    HW1 1425   2.684   0.483   2.141
  682SOL    HW2 1426   2.583   0.606   2.179
  683SOL     OW 1427   2.335   0.500   2.053
  683SOL    HW1 1428   2.396   0.580   2.057
  683SOL    HW2 1429   2.240   0.531   2.060
  684SOL     OW 1430   2.452   1.487   2.353
  684SOL    HW1 1431   2.494   1.429   2.283
  684SOL    HW2 1432   2.408   1.566   2.309
  685SOL     OW 1433   2.117   1.348   2.152
  685SOL    HW1 1434   2.021   1.349   2.125
  685SOL    HW2 1435   2.129   1.401   2.236
  686SOL     OW 1436   1.937   0.345   1.895
  686SOL    HW1 1437   1.845   0.317   1.866
  686SOL    HW2 1438   1.968   0.422   1.839
  687SOL     OW 1439   1.934   0.166   2.180
  687SOL    HW1 1440   1.917   0.249   2.126
  687SOL    HW2 1441   2.024   0.129   2.158
  688SOL     OW 1442   2.456   0.745   2.514
  688SOL    HW1 1443   2.506   0.830   2.495
  688SOL    HW2 1444   2.368   0.747   2.466
  689SOL     OW 1445   1.941   1.240   2.515
  689SOL    HW1 1446   1.940   1.193   2.603
  689SOL    HW2 1447   2.023   1.212   2.464
  690SOL     OW 1448   1.901   1.077   2.162
  690SOL    HW1 1449   2.000   1.066   2.153
  690SOL    HW2 1450   1.861   0.991   2.194
  691SOL     OW 1451   2.087   2.137   0.996
  691SOL    HW1 1452   2.122   2.120   1.088
  691SOL    HW2 1453   1.999   2.092   0.984
  692SOL     OW 1454   1.881   2.230   0.647
  692SOL    HW1 1455   1.799   2.273   0.686
  692SOL    HW2 1456   1.853   2.157   0.584
  693SOL     OW 1457   2.300   2.254   1.499
  693SOL    HW1 1458   2.382   2.198   1.508
  693SOL    HW2 1459   2.219   2.196   1.503
  694SOL     OW 1460   1.984   2.505   0.563
  694SOL    HW1 1461   1.939   2.417   0.580
  694SOL    HW2 1462   1.983   2.559   0.647
  695SOL     OW 1463   2.179   2.113   1.801
  695SOL    HW1 1464   2.250   2.184   1.807
  695SOL    HW2 1465   2.091   2.152   1.829
  696SOL     OW 1466   1.938   2.673   0.789
  696SOL    HW1 1467   2.037   2.661   0.798
  696SOL    HW2 1468   1.914   2.768   0.810
  697SOL     OW 1469   2.727   2.210   0.195
  697SOL    HW1 1470   2.786   2.273   0.146
  697SOL    HW2 1471   2.746   2.116   0.166
  698SOL     OW 1472   2.412   2.058   0.885
  698SOL    HW1 1473   2.407   2.053   0.985
  698SOL    HW2 1474   2.414   2.154   0.856
  699SOL     OW 1475   2.064   2.147   1.498
  699SOL    HW1 1476   1.984   2.207   1.485
  699SOL    HW2 1477   2.054   2.098   1.584
  700SOL     OW 1478   2.476   1.984   0.117
  700SOL    HW1 1479   2.574   1.962   0.124
  700SOL    HW2 1480   2.445   1.967   0.024
  701SOL     OW 1481   2.401   1.926   0.512
  701SOL    HW1 1482   2.320   1.927   0.570
  701SOL    HW2 1483   2.404   2.009   0.457
  702SOL     OW 1484   2.159   1.897   0.171
  702SOL    HW1 1485   2.208   1.981   0.150
  702SOL    HW2 1486   2.221   1.832   0.216
  703SOL     OW 1487   2.797   2.098   0.480
  703SOL    HW1 1488   2.749   2.139   0.402
  703SOL    HW2 1489   2.896   2.096   0.461
  704SOL     OW 1490   1.940   2.418   1.386
  704SOL    HW1 1491   2.032   2.417   1.345
  704SOL    HW2 1492   1.934   2.492   1.453
  705SOL     OW 1493   2.423   2.084   1.147
  705SOL    HW1 1494   2.461   2.000   1.184
  705SOL    HW2 1495   2.335   2.103   1.191
  706SOL     OW 1496   2.389   2.118   0.328
  706SOL    HW1 1497   2.416   2.059   0.253
  706SOL    HW2 1498   2.389   2.213   0.297
  707SOL     OW 1499   2.428   2.399   0.865
  707SOL    HW1 1500   2.440   2.465   0.791
  707SOL    HW2 1501   2.474   2.433   0.948
  708SOL     OW 1502   2.366   1.912   1.740
  708SOL    HW1 1503   2.324   1.855   1.670
  708SOL    HW2 1504   2.300   1.981   1.772
  709SOL     OW 1505   2.169   2.075   1.231
  709SOL    HW1 1506   2.146   2.112   1.321
  709SOL    HW2 1507   2.139   1.980   1.225
  710SOL     OW 1508   2.169   1.925   0.618
  710SOL    HW1 1509   2.158   2.019   0.651
  710SOL    HW2 1510   2.164   1.862   0.695
  711SOL     OW 1511   2.201   2.371   1.006
  711SOL    HW1 1512   2.149   2.288   0.989
  711SOL    HW2 1513   2.278   2.376   0.942
  712SOL     OW 1514   1.902   2.406   1.114
  712SOL    HW1 1515   1.987   2.373   1.073
  712SOL    HW2 1516   1.915   2.421   1.212
  713SOL     OW 1517   2.051   2.382   1.722
  713SOL    HW1 1518   2.110   2.342   1.652
  713SOL    HW2 1519   1.993   2.453   1.681
  714SOL     OW 1520   2.677   2.434   0.325
  714SOL    HW1 1521   2.684   2.345   0.279
  714SOL    HW2 1522   2.583   2.468   0.317
  715SOL     OW 1523   2.125   2.188   0.720
  715SOL    HW1 1524   2.046   2.239   0.686
  715SOL    HW2 1525   2.116   2.173   0.818
  716SOL     OW 1526   1.937   2.207   0.033
  716SOL    HW1 1527   1.845   2.179   0.004
  716SOL    HW2 1528   1.968   2.284  -0.023
  717SOL     OW 1529   1.934   2.028   0.318
  717SOL    HW1 1530   1.917   2.111   0.264
  717SOL    HW2 1531   2.024   1.991   0.296
  718SOL     OW 1532   2.475   2.704   1.431
  718SOL    HW1 1533   2.531   2.785   1.414
  718SOL    HW2 1534   2.534   2.624   1.434
  719SOL     OW 1535   2.290   2.286   0.520
  719SOL    HW1 1536   2.320   2.214   0.458
  719SOL    HW2 1537   2.251   2.246   0.603
  720SOL     OW 1538   2.179   2.409   1.280
  720SOL    HW1 1539   2.217   2.350   1.352
  720SOL    HW2 1540   2.219   2.383   1.192
  721SOL     OW 1541   1.984   2.505   2.425
  721SOL    HW1 1542   1.939   2.417   2.442
  721SOL    HW2 1543   1.983   2.559   2.509
  722SOL     OW 1544   2.727   2.210   2.057
  722SOL    HW1 1545   2.786   2.273   2.008
  722SOL    HW2 1546   2.746   2.116   2.028
  723SOL     OW 1547   2.476   1.984   1.979
  723SOL    HW1 1548   2.574   1.962   1.986
  723SOL    HW2 1549   2.445   1.967   1.886
  724SOL     OW 1550   2.401   1.926   2.374
  724SOL    HW1 1551   2.320   1.927   2.432
  724SOL    HW2 1552   2.404   2.009   2.319
  725SOL     OW 1553   2.159   1.897   2.033
  725SOL    HW1 1554   2.208   1.981   2.012
  725SOL    HW2 1555   2.221   1.832   2.078
  726SOL     OW 1556   2.797   2.098   2.342
  726SOL    HW1 1557   2.749   2.139   2.264
  726SOL    HW2 1558   2.896   2.096   2.323
  727SOL     OW 1559   2.389   2.118   2.190
  727SOL    HW1 1560   2.416   2.059   2.115
  727SOL    HW2 1561   2.389   2.213   2.159
  728SOL     OW 1562   2.677   2.434   2.187
  728SOL    HW1 1563   2.684   2.345   2.141
  728SOL    HW2 1564   2.583   2.468   2.179
  729SOL     OW 1565   1.937   2.207   1.895
  729SOL    HW1 1566   1.845   2.179   1.866
  729SOL    HW2 1567   1.968   2.284   1.839
  730SOL     OW 1568   1.934   2.028   2.180
  730SOL    HW1 1569   1.917   2.111   2.126
  730SOL    HW2 1570   2.024   1.991   2.158
  731SOL     OW 1571   2.290   2.286   2.382
  731SOL    HW1 1572   2.320   2.214   2.320
  731SOL    HW2 1573   2.251   2.246   2.465
  732NA      NA 1574   1.400   1.969   0.426
  733NA      NA 1575   2.290   0.424   2.382
  734CL      CL 1576   0.488   1.385   0.174
  735CL      CL 1577   0.598   0.729   2.132
   2.52380   2.52380   2.52380
